                         Program Version 4.2.0 -  RELEASE  -
|  1> !rhf caspt2 def2-qzvpp tightscf
|  2> !normalprint
|  3>
|  4> %paras
|  5> #  rHH [19.952623149688797 16.43574799372698 13.538761800225439 11.152402139117903 9.1866653175426 7.567411809920191 6.233570019315557 5.134832907437553 4.229760619613384 3.4842175435383975 2.870084854071569 2.3641999865500756 1.9474830399087562 1.6042171611153242 1.32145576997553 1.088534267260644 0.8966678097917788 0.7386199822079362 0.6084298690766428 0.5011872336272722]
|  6>   rHH [0.5011872336272722 0.6084298690766428 0.7386199822079362 0.8966678097917788 1.088534267260644 1.32145576997553 1.6042171611153242 1.9474830399087562 2.3641999865500756 2.870084854071569 3.4842175435383975 4.229760619613384 5.134832907437553 6.233570019315557 7.567411809920191 9.1866653175426 11.152402139117903 13.538761800225439 16.43574799372698 19.952623149688797]
|  7> end
|  8>
|  9> %scf
| 10>   maxiter 500
| 11> end
| 12>
| 13> %casscf
| 14>   nel 2
| 15>   norb 2
| 16> end
| 17>
| 18> *int 0 1
| 19> H 0 0 0 0 0 0
| 20> H 1 0 0 {rHH} 0 0
| 21> *
| 22>
| 23>                          ****END OF INPUT****
 Total Charge           Charge          ....    0
 Multiplicity           Mult            ....    1
 Number of Electrons    NEL             ....    2
 Basis Dimension        Dim             ....   60

ORBITAL ENERGIES
----------------

  NO   OCC          E(Eh)            E(eV)
   0   1.9890      -0.677298       -18.4302
   1   0.0110       1.014559        27.6076
   2   0.0000       0.179297         4.8789
   3   0.0000       0.196424         5.3450
   4   0.0000       0.534139        14.5347
   5   0.0000       0.534139        14.5347
   6   0.0000       0.785164        21.3654

MULLIKEN ATOMIC CHARGES
-----------------------
   0 H :   -0.000000
   1 H :    0.000000
Sum of atomic charges:   -0.0000000

LOEWDIN ATOMIC CHARGES
----------------------
   0 H :    0.000000
   1 H :    0.000000

  Mayer bond orders larger than 0.100000
B(  0-H ,  1-H ) :   0.9861

FINAL SINGLE POINT ENERGY        -1.100634960390
FINAL SINGLE POINT ENERGY        -1.154352364987
FINAL SINGLE POINT ENERGY        -1.170619469261
FINAL SINGLE POINT ENERGY        -1.159418452525
FINAL SINGLE POINT ENERGY        -1.130116930589
FINAL SINGLE POINT ENERGY        -1.091848148547
FINAL SINGLE POINT ENERGY        -1.053743887279
FINAL SINGLE POINT ENERGY        -1.024265413421
FINAL SINGLE POINT ENERGY        -1.007849919660
FINAL SINGLE POINT ENERGY        -1.001733068051
FINAL SINGLE POINT ENERGY        -1.000239207644
FINAL SINGLE POINT ENERGY        -0.999999326210
FINAL SINGLE POINT ENERGY        -0.999971495845
FINAL SINGLE POINT ENERGY        -0.999967820517
FINAL SINGLE POINT ENERGY        -0.999966953890
FINAL SINGLE POINT ENERGY        -0.999966708415
FINAL SINGLE POINT ENERGY        -0.999966632580
FINAL SINGLE POINT ENERGY        -0.999966609011
FINAL SINGLE POINT ENERGY        -0.999966601731

CARTESIAN COORDINATES (ANGSTROEM)
---------------------------------
  H      0.000000    0.000000    0.000000
  H     19.952623    0.000000    0.000000

FINAL SINGLE POINT ENERGY        -0.999966599512

DIPOLE MOMENT
-------------
                                X             Y             Z
Electronic contribution:      0.00000       0.00000      -0.00000
Nuclear contribution   :     -0.00000       0.00000       0.00000
                        -----------------------------------------
Total Dipole Moment    :     -0.00000       0.00000      -0.00000
                        -----------------------------------------
Magnitude (a.u.)       :      0.00000
Magnitude (Debye)      :      0.00000

Rotational constants in cm-1:     0.000000     0.084017     0.084017
Rotational constants in MHz :     0.000000  2518.761623  2518.761623

                             ****ORCA TERMINATED NORMALLY****
TOTAL RUN TIME: 0 days 0 hours 2 minutes 16 seconds 522 msec
