                         Program Version 4.2.0 -  RELEASE  -
|  1> !uks bp86 6-31g* tightscf opt
|  2> !autoaux
|  3> !normalprint
|  4> !pal8
|  5>
|  6> %scf
|  7>   maxiter 500
|  8> end
|  9>
| 10> %geom
| 11>   maxiter 250
| 12> end
| 13>
| 14> *xyzfile 0 3 benzene_0_1_bp86_6-31gpol.opt.xyz
| 15>
| 16>                          ****END OF INPUT****
 Total Charge           Charge          ....    0
 Multiplicity           Mult            ....    3
 Number of Electrons    NEL             ....   42
FINAL SINGLE POINT ENERGY      -232.075643648302
FINAL SINGLE POINT ENERGY      -232.091880871713
FINAL SINGLE POINT ENERGY      -232.093917017831
FINAL SINGLE POINT ENERGY      -232.094237856485
FINAL SINGLE POINT ENERGY      -232.094272777699
FINAL SINGLE POINT ENERGY      -232.094280083184
                    ***********************HURRAY********************

CARTESIAN COORDINATES (ANGSTROEM)
---------------------------------
  C      1.430842   -0.177646    0.006034
  C      0.472063   -1.363787   -0.009445
  C     -0.904174   -1.132992   -0.014176
  C     -1.421284    0.166653   -0.005047
  C     -0.462505    1.352794    0.010461
  C      0.913732    1.121999    0.015178
  H      2.508072   -0.363826    0.010216
  H      0.880776   -2.377423   -0.016962
  H     -1.592986   -1.986145   -0.025479
  H     -2.498513    0.352832   -0.009270
  H     -0.871216    2.366429    0.018019
  H      1.602542    1.975152    0.026482

 Multiplicity           Mult            ....    3
 Number of Electrons    NEL             ....   42
 Basis Dimension        Dim             ....   96

ORBITAL ENERGIES
----------------
                 SPIN UP ORBITALS
  NO   OCC          E(Eh)            E(eV)
   0   1.0000      -9.920612      -269.9536
   1   1.0000      -9.920592      -269.9530
   2   1.0000      -9.920138      -269.9407
   3   1.0000      -9.920118      -269.9401
   4   1.0000      -9.910627      -269.6819
   5   1.0000      -9.910612      -269.6815
   6   1.0000      -0.762243       -20.7417
   7   1.0000      -0.677422       -18.4336
   8   1.0000      -0.662652       -18.0317
   9   1.0000      -0.551454       -15.0058
  10   1.0000      -0.529578       -14.4105
  11   1.0000      -0.461010       -12.5447
  12   1.0000      -0.419488       -11.4149
  13   1.0000      -0.385680       -10.4949
  14   1.0000      -0.378187       -10.2910
  15   1.0000      -0.361183        -9.8283
  16   1.0000      -0.327819        -8.9204
  17   1.0000      -0.312350        -8.4995
  18   1.0000      -0.289642        -7.8816
  19   1.0000      -0.236962        -6.4481
  20   1.0000      -0.235204        -6.4002
  21   1.0000      -0.081064        -2.2059
  22   0.0000      -0.028160        -0.7663
  23   0.0000       0.063354         1.7239
  24   0.0000       0.081009         2.2044
  25   0.0000       0.111683         3.0390
  26   0.0000       0.120628         3.2825

                 SPIN DOWN ORBITALS
  NO   OCC          E(Eh)            E(eV)
   0   1.0000      -9.913162      -269.7509
   1   1.0000      -9.913145      -269.7504
   2   1.0000      -9.912001      -269.7193
   3   1.0000      -9.911985      -269.7188
   4   1.0000      -9.911784      -269.7134
   5   1.0000      -9.911768      -269.7129
   6   1.0000      -0.748461       -20.3667
   7   1.0000      -0.670996       -18.2587
   8   1.0000      -0.638653       -17.3786
   9   1.0000      -0.533670       -14.5219
  10   1.0000      -0.522395       -14.2151
  11   1.0000      -0.456313       -12.4169
  12   1.0000      -0.410778       -11.1778
  13   1.0000      -0.378237       -10.2923
  14   1.0000      -0.376977       -10.2581
  15   1.0000      -0.352506        -9.5922
  16   1.0000      -0.307848        -8.3770
  17   1.0000      -0.294090        -8.0026
  18   1.0000      -0.283693        -7.7197
  19   1.0000      -0.221106        -6.0166
  20   0.0000      -0.172371        -4.6905
  21   0.0000      -0.014859        -0.4043
  22   0.0000      -0.011770        -0.3203
  23   0.0000       0.066844         1.8189
  24   0.0000       0.112318         3.0563

MULLIKEN ATOMIC CHARGES AND SPIN POPULATIONS
--------------------------------------------
   0 C :   -0.158064    0.652464
   1 C :   -0.148498    0.631496
   2 C :   -0.115786   -0.219443
   3 C :   -0.158058    0.652465
   4 C :   -0.148493    0.631496
   5 C :   -0.115787   -0.219443
   6 H :    0.143641   -0.035418
   7 H :    0.137929   -0.034639
   8 H :    0.140774    0.005539
   9 H :    0.143640   -0.035418
  10 H :    0.137929   -0.034639
  11 H :    0.140774    0.005539
Sum of atomic charges         :   -0.0000000

LOEWDIN ATOMIC CHARGES AND SPIN POPULATIONS
-------------------------------------------
   0 C :   -0.131993    0.582656
   1 C :   -0.130140    0.565012
   2 C :   -0.144342   -0.114740
   3 C :   -0.131989    0.582657
   4 C :   -0.130136    0.565012
   5 C :   -0.144342   -0.114740
   6 H :    0.135641   -0.017777
   7 H :    0.134293   -0.017389
   8 H :    0.136537    0.002237
   9 H :    0.135641   -0.017777
  10 H :    0.134293   -0.017389
  11 H :    0.136537    0.002237

  Mayer bond orders larger than 0.100000
B(  0-C ,  1-C ) :   0.9782 B(  0-C ,  4-C ) :   0.1765 B(  0-C ,  5-C ) :   1.4542
B(  0-C ,  6-H ) :   0.9196 B(  1-C ,  2-C ) :   1.4762 B(  1-C ,  3-C ) :   0.1765
B(  1-C ,  7-H ) :   0.9217 B(  2-C ,  3-C ) :   1.4542 B(  2-C ,  8-H ) :   0.9196
B(  3-C ,  4-C ) :   0.9782 B(  3-C ,  9-H ) :   0.9196 B(  4-C ,  5-C ) :   1.4762
B(  4-C , 10-H ) :   0.9217 B(  5-C , 11-H ) :   0.9196

FINAL SINGLE POINT ENERGY      -232.094280512850

DIPOLE MOMENT
-------------
                                X             Y             Z
Electronic contribution:     -0.00002       0.00001       0.00000
Nuclear contribution   :      0.00000      -0.00000      -0.00000
                        -----------------------------------------
Total Dipole Moment    :     -0.00001       0.00001      -0.00000
                        -----------------------------------------
Magnitude (a.u.)       :      0.00002
Magnitude (Debye)      :      0.00005

Rotational constants in cm-1:     0.186863     0.171759     0.089497
Rotational constants in MHz :  5602.019141  5149.211684  2683.040032

                             ****ORCA TERMINATED NORMALLY****
TOTAL RUN TIME: 0 days 0 hours 1 minutes 19 seconds 573 msec
