                         Program Version 5.0.2 -  RELEASE  -
|  1> !uks lc-blyp def2-svp tightscf
|  2>
|  3> %paras
|  4>   rHH = 0.5,3.0,21
|  5> end
|  6>
|  7> %scf
|  8>   maxiter 250
|  9> end
| 10>
| 11> *int 1 2
| 12> H 0 0 0 0 0 0
| 13> H 1 0 0 {rHH} 0 0
| 14> *
| 15>
| 16>                          ****END OF INPUT****
 Total Charge           Charge          ....    1
 Multiplicity           Mult            ....    2
 Number of Electrons    NEL             ....    1
 Basis Dimension        Dim             ....   10

ORBITAL ENERGIES
----------------
                 SPIN UP ORBITALS
  NO   OCC          E(Eh)            E(eV)
   0   1.0000      -1.292504       -35.1708
   1   0.0000      -0.166291        -4.5250
   2   0.0000      -0.029838        -0.8119
   3   0.0000       0.483952        13.1690
   4   0.0000       0.651209        17.7203
   5   0.0000       0.651209        17.7203

                 SPIN DOWN ORBITALS
  NO   OCC          E(Eh)            E(eV)

MULLIKEN ATOMIC CHARGES AND SPIN POPULATIONS
--------------------------------------------
   0 H :    0.500000    0.500000
   1 H :    0.500000    0.500000
Sum of atomic charges         :    1.0000000

LOEWDIN ATOMIC CHARGES AND SPIN POPULATIONS
-------------------------------------------
   0 H :    0.500000    0.500000
   1 H :    0.500000    0.500000

  Mayer bond orders larger than 0.100000
B(  0-H ,  1-H ) :   0.5000

FINAL SINGLE POINT ENERGY        -0.378542955095
FINAL SINGLE POINT ENERGY        -0.494690801949
FINAL SINGLE POINT ENERGY        -0.551642098223
FINAL SINGLE POINT ENERGY        -0.578910621422
FINAL SINGLE POINT ENERGY        -0.590377652330
FINAL SINGLE POINT ENERGY        -0.593208895308
FINAL SINGLE POINT ENERGY        -0.591297694275
FINAL SINGLE POINT ENERGY        -0.586814020694
FINAL SINGLE POINT ENERGY        -0.581022032997
FINAL SINGLE POINT ENERGY        -0.574721934701
FINAL SINGLE POINT ENERGY        -0.562519289675
FINAL SINGLE POINT ENERGY        -0.557104647104
FINAL SINGLE POINT ENERGY        -0.552251476771
FINAL SINGLE POINT ENERGY        -0.547950201116
FINAL SINGLE POINT ENERGY        -0.544164136935
FINAL SINGLE POINT ENERGY        -0.540850739600
FINAL SINGLE POINT ENERGY        -0.537965258343
FINAL SINGLE POINT ENERGY        -0.535463099025
FINAL SINGLE POINT ENERGY        -0.533303489762

CARTESIAN COORDINATES (ANGSTROEM)
---------------------------------
  H      0.000000    0.000000    0.000000
  H      3.000000    0.000000    0.000000

FINAL SINGLE POINT ENERGY        -0.531448397459

DIPOLE MOMENT
-------------
                                X             Y             Z
Electronic contribution:      0.00000      -0.00000      -0.00000
Nuclear contribution   :      0.00000       0.00000       0.00000
                        -----------------------------------------
Total Dipole Moment    :      0.00000      -0.00000      -0.00000
                        -----------------------------------------
Magnitude (a.u.)       :      0.00000
Magnitude (Debye)      :      0.00000

Rotational constants in cm-1:     0.000000     3.716412     3.716412
Rotational constants in MHz :     0.000000 111415.229208 111415.229208

                             ****ORCA TERMINATED NORMALLY****
TOTAL RUN TIME: 0 days 0 hours 0 minutes 16 seconds 278 msec
