                         Program Version 5.0.2 -  RELEASE  -
|  1> !uks wb97x def2-svp tightscf
|  2>
|  3> %paras
|  4>   rHH = 0.5,3.0,21
|  5> end
|  6>
|  7> %scf
|  8>   maxiter 250
|  9> end
| 10>
| 11> *int 1 2
| 12> H 0 0 0 0 0 0
| 13> H 1 0 0 {rHH} 0 0
| 14> *
| 15>
| 16>                          ****END OF INPUT****
 Total Charge           Charge          ....    1
 Multiplicity           Mult            ....    2
 Number of Electrons    NEL             ....    1
 Basis Dimension        Dim             ....   10

ORBITAL ENERGIES
----------------
                 SPIN UP ORBITALS
  NO   OCC          E(Eh)            E(eV)
   0   1.0000      -1.320925       -35.9442
   1   0.0000      -0.159384        -4.3371
   2   0.0000      -0.025149        -0.6843
   3   0.0000       0.480855        13.0847
   4   0.0000       0.646693        17.5974
   5   0.0000       0.646693        17.5974

                 SPIN DOWN ORBITALS
  NO   OCC          E(Eh)            E(eV)

MULLIKEN ATOMIC CHARGES AND SPIN POPULATIONS
--------------------------------------------
   0 H :    0.500000    0.500000
   1 H :    0.500000    0.500000
Sum of atomic charges         :    1.0000000

LOEWDIN ATOMIC CHARGES AND SPIN POPULATIONS
-------------------------------------------
   0 H :    0.500000    0.500000
   1 H :    0.500000    0.500000

  Mayer bond orders larger than 0.100000
B(  0-H ,  1-H ) :   0.5000

FINAL SINGLE POINT ENERGY        -0.400632282477
FINAL SINGLE POINT ENERGY        -0.515386626516
FINAL SINGLE POINT ENERGY        -0.570900753829
FINAL SINGLE POINT ENERGY        -0.596749154426
FINAL SINGLE POINT ENERGY        -0.606867444475
FINAL SINGLE POINT ENERGY        -0.608458849639
FINAL SINGLE POINT ENERGY        -0.605430851442
FINAL SINGLE POINT ENERGY        -0.599964365059
FINAL SINGLE POINT ENERGY        -0.593351597451
FINAL SINGLE POINT ENERGY        -0.586426049855
FINAL SINGLE POINT ENERGY        -0.573552067100
FINAL SINGLE POINT ENERGY        -0.568029298850
FINAL SINGLE POINT ENERGY        -0.563169615674
FINAL SINGLE POINT ENERGY        -0.558930699315
FINAL SINGLE POINT ENERGY        -0.555247037266
FINAL SINGLE POINT ENERGY        -0.552073863809
FINAL SINGLE POINT ENERGY        -0.549343784890
FINAL SINGLE POINT ENERGY        -0.546996013631
FINAL SINGLE POINT ENERGY        -0.545000703982

CARTESIAN COORDINATES (ANGSTROEM)
---------------------------------
  H      0.000000    0.000000    0.000000
  H      3.000000    0.000000    0.000000

FINAL SINGLE POINT ENERGY        -0.543308477620

DIPOLE MOMENT
-------------
                                X             Y             Z
Electronic contribution:     -0.00000       0.00000       0.00000
Nuclear contribution   :      0.00000       0.00000       0.00000
                        -----------------------------------------
Total Dipole Moment    :     -0.00000       0.00000       0.00000
                        -----------------------------------------
Magnitude (a.u.)       :      0.00000
Magnitude (Debye)      :      0.00000

Rotational constants in cm-1:     0.000000     3.716412     3.716412
Rotational constants in MHz :     0.000000 111415.229208 111415.229208

                             ****ORCA TERMINATED NORMALLY****
TOTAL RUN TIME: 0 days 0 hours 0 minutes 23 seconds 759 msec
