                         Program Version 5.0.2 -  RELEASE  -
|  1> !uks pbe0 def2-svp tightscf
|  2>
|  3> %paras
|  4>   rHH = 0.5,3.0,21
|  5> end
|  6>
|  7> %scf
|  8>   maxiter 250
|  9> end
| 10>
| 11> *int 1 2
| 12> H 0 0 0 0 0 0
| 13> H 1 0 0 {rHH} 0 0
| 14> *
| 15>
| 16>                          ****END OF INPUT****
 Total Charge           Charge          ....    1
 Multiplicity           Mult            ....    2
 Number of Electrons    NEL             ....    1
 Basis Dimension        Dim             ....   10

ORBITAL ENERGIES
----------------
                 SPIN UP ORBITALS
  NO   OCC          E(Eh)            E(eV)
   0   1.0000      -1.225928       -33.3592
   1   0.0000      -0.241062        -6.5596
   2   0.0000      -0.097740        -2.6596
   3   0.0000       0.406887        11.0720
   4   0.0000       0.546788        14.8789
   5   0.0000       0.546788        14.8789

                 SPIN DOWN ORBITALS
  NO   OCC          E(Eh)            E(eV)

MULLIKEN ATOMIC CHARGES AND SPIN POPULATIONS
--------------------------------------------
   0 H :    0.500000    0.500000
   1 H :    0.500000    0.500000
Sum of atomic charges         :    1.0000000

LOEWDIN ATOMIC CHARGES AND SPIN POPULATIONS
-------------------------------------------
   0 H :    0.500000    0.500000
   1 H :    0.500000    0.500000

  Mayer bond orders larger than 0.100000
B(  0-H ,  1-H ) :   0.5000

FINAL SINGLE POINT ENERGY        -0.399289799751
FINAL SINGLE POINT ENERGY        -0.513988555964
FINAL SINGLE POINT ENERGY        -0.569463335469
FINAL SINGLE POINT ENERGY        -0.595335316135
FINAL SINGLE POINT ENERGY        -0.605563388062
FINAL SINGLE POINT ENERGY        -0.607366325398
FINAL SINGLE POINT ENERGY        -0.604667626073
FINAL SINGLE POINT ENERGY        -0.599653300024
FINAL SINGLE POINT ENERGY        -0.593602089328
FINAL SINGLE POINT ENERGY        -0.587326958260
FINAL SINGLE POINT ENERGY        -0.575989431406
FINAL SINGLE POINT ENERGY        -0.571347035385
FINAL SINGLE POINT ENERGY        -0.567435313139
FINAL SINGLE POINT ENERGY        -0.564204738270
FINAL SINGLE POINT ENERGY        -0.561582856106
FINAL SINGLE POINT ENERGY        -0.559497076358
FINAL SINGLE POINT ENERGY        -0.557875255538
FINAL SINGLE POINT ENERGY        -0.556650001607
FINAL SINGLE POINT ENERGY        -0.555763570003

CARTESIAN COORDINATES (ANGSTROEM)
---------------------------------
  H      0.000000    0.000000    0.000000
  H      3.000000    0.000000    0.000000

FINAL SINGLE POINT ENERGY        -0.555161467877

DIPOLE MOMENT
-------------
                                X             Y             Z
Electronic contribution:     -0.00003       0.00000       0.00000
Nuclear contribution   :      0.00000       0.00000       0.00000
                        -----------------------------------------
Total Dipole Moment    :     -0.00003       0.00000       0.00000
                        -----------------------------------------
Magnitude (a.u.)       :      0.00003
Magnitude (Debye)      :      0.00007

Rotational constants in cm-1:     0.000000     3.716412     3.716412
Rotational constants in MHz :     0.000000 111415.229208 111415.229208

                             ****ORCA TERMINATED NORMALLY****
TOTAL RUN TIME: 0 days 0 hours 0 minutes 22 seconds 872 msec
