                         Program Version 5.0.2 -  RELEASE  -
|  1> !uks m06 def2-svp tightscf
|  2>
|  3> %paras
|  4>   rHH = 0.5,3.0,21
|  5> end
|  6>
|  7> %scf
|  8>   maxiter 250
|  9> end
| 10>
| 11> *int 1 2
| 12> H 0 0 0 0 0 0
| 13> H 1 0 0 {rHH} 0 0
| 14> *
| 15>
| 16>                          ****END OF INPUT****
 Total Charge           Charge          ....    1
 Multiplicity           Mult            ....    2
 Number of Electrons    NEL             ....    1
 Basis Dimension        Dim             ....   10

ORBITAL ENERGIES
----------------
                 SPIN UP ORBITALS
  NO   OCC          E(Eh)            E(eV)
   0   1.0000      -1.212125       -32.9836
   1   0.0000      -0.252955        -6.8833
   2   0.0000      -0.181718        -4.9448
   3   0.0000       0.793663        21.5967
   4   0.0000       3.175118        86.3994
   5   0.0000       3.175118        86.3994

                 SPIN DOWN ORBITALS
  NO   OCC          E(Eh)            E(eV)

MULLIKEN ATOMIC CHARGES AND SPIN POPULATIONS
--------------------------------------------
   0 H :    0.500000    0.500000
   1 H :    0.500000    0.500000
Sum of atomic charges         :    1.0000000

LOEWDIN ATOMIC CHARGES AND SPIN POPULATIONS
-------------------------------------------
   0 H :    0.500000    0.500000
   1 H :    0.500000    0.500000

  Mayer bond orders larger than 0.100000
B(  0-H ,  1-H ) :   0.5000

FINAL SINGLE POINT ENERGY        -0.395634806282
FINAL SINGLE POINT ENERGY        -0.510089808363
FINAL SINGLE POINT ENERGY        -0.565677859388
FINAL SINGLE POINT ENERGY        -0.591933894697
FINAL SINGLE POINT ENERGY        -0.602787561158
FINAL SINGLE POINT ENERGY        -0.605731685348
FINAL SINGLE POINT ENERGY        -0.604216887225
FINAL SINGLE POINT ENERGY        -0.599980149482
FINAL SINGLE POINT ENERGY        -0.594348537104
FINAL SINGLE POINT ENERGY        -0.588743647508
FINAL SINGLE POINT ENERGY        -0.578778359548
FINAL SINGLE POINT ENERGY        -0.574599494445
FINAL SINGLE POINT ENERGY        -0.570972622014
FINAL SINGLE POINT ENERGY        -0.568050539072
FINAL SINGLE POINT ENERGY        -0.565601203270
FINAL SINGLE POINT ENERGY        -0.563771617504
FINAL SINGLE POINT ENERGY        -0.562391434071
FINAL SINGLE POINT ENERGY        -0.561314003558
FINAL SINGLE POINT ENERGY        -0.560565217255

CARTESIAN COORDINATES (ANGSTROEM)
---------------------------------
  H      0.000000    0.000000    0.000000
  H      3.000000    0.000000    0.000000

FINAL SINGLE POINT ENERGY        -0.560080373236

DIPOLE MOMENT
-------------
                                X             Y             Z
Electronic contribution:      0.00000       0.00000       0.00000
Nuclear contribution   :      0.00000       0.00000       0.00000
                        -----------------------------------------
Total Dipole Moment    :      0.00000       0.00000       0.00000
                        -----------------------------------------
Magnitude (a.u.)       :      0.00000
Magnitude (Debye)      :      0.00001

Rotational constants in cm-1:     0.000000     3.716412     3.716412
Rotational constants in MHz :     0.000000 111415.229208 111415.229208

                             ****ORCA TERMINATED NORMALLY****
TOTAL RUN TIME: 0 days 0 hours 0 minutes 25 seconds 42 msec
