                         Program Version 5.0.2 -  RELEASE  -
|  1> !uks lc-pbe def2-svp tightscf
|  2>
|  3> %paras
|  4>   rHH = 0.5,3.0,21
|  5> end
|  6>
|  7> %scf
|  8>   maxiter 250
|  9> end
| 10>
| 11> *int 1 2
| 12> H 0 0 0 0 0 0
| 13> H 1 0 0 {rHH} 0 0
| 14> *
| 15>
| 16>                          ****END OF INPUT****
 Total Charge           Charge          ....    1
 Multiplicity           Mult            ....    2
 Number of Electrons    NEL             ....    1
 Basis Dimension        Dim             ....   10

ORBITAL ENERGIES
----------------
                 SPIN UP ORBITALS
  NO   OCC          E(Eh)            E(eV)
   0   1.0000      -1.353587       -36.8330
   1   0.0000      -0.157496        -4.2857
   2   0.0000      -0.020342        -0.5535
   3   0.0000       0.508519        13.8375
   4   0.0000       0.676698        18.4139
   5   0.0000       0.676698        18.4139

                 SPIN DOWN ORBITALS
  NO   OCC          E(Eh)            E(eV)

MULLIKEN ATOMIC CHARGES AND SPIN POPULATIONS
--------------------------------------------
   0 H :    0.500000    0.500000
   1 H :    0.500000    0.500000
Sum of atomic charges         :    1.0000000

LOEWDIN ATOMIC CHARGES AND SPIN POPULATIONS
-------------------------------------------
   0 H :    0.500000    0.500000
   1 H :    0.500000    0.500000

  Mayer bond orders larger than 0.100000
B(  0-H ,  1-H ) :   0.5000

FINAL SINGLE POINT ENERGY        -0.392073274777
FINAL SINGLE POINT ENERGY        -0.508019743822
FINAL SINGLE POINT ENERGY        -0.564452153239
FINAL SINGLE POINT ENERGY        -0.590935981667
FINAL SINGLE POINT ENERGY        -0.601417223325
FINAL SINGLE POINT ENERGY        -0.603114963341
FINAL SINGLE POINT ENERGY        -0.599959315608
FINAL SINGLE POINT ENERGY        -0.594149996390
FINAL SINGLE POINT ENERGY        -0.586990366471
FINAL SINGLE POINT ENERGY        -0.579335442726
FINAL SINGLE POINT ENERGY        -0.564662422416
FINAL SINGLE POINT ENERGY        -0.558178371744
FINAL SINGLE POINT ENERGY        -0.552366638136
FINAL SINGLE POINT ENERGY        -0.547209602764
FINAL SINGLE POINT ENERGY        -0.542663772431
FINAL SINGLE POINT ENERGY        -0.538680992534
FINAL SINGLE POINT ENERGY        -0.535210414972
FINAL SINGLE POINT ENERGY        -0.532202775591
FINAL SINGLE POINT ENERGY        -0.529612513379

CARTESIAN COORDINATES (ANGSTROEM)
---------------------------------
  H      0.000000    0.000000    0.000000
  H      3.000000    0.000000    0.000000

FINAL SINGLE POINT ENERGY        -0.527393789120

DIPOLE MOMENT
-------------
                                X             Y             Z
Electronic contribution:     -0.00000      -0.00000      -0.00000
Nuclear contribution   :      0.00000       0.00000       0.00000
                        -----------------------------------------
Total Dipole Moment    :     -0.00000      -0.00000      -0.00000
                        -----------------------------------------
Magnitude (a.u.)       :      0.00000
Magnitude (Debye)      :      0.00000

Rotational constants in cm-1:     0.000000     3.716412     3.716412
Rotational constants in MHz :     0.000000 111415.229208 111415.229208

                             ****ORCA TERMINATED NORMALLY****
TOTAL RUN TIME: 0 days 0 hours 0 minutes 15 seconds 820 msec
