                         Program Version 5.0.2 -  RELEASE  -
|  1> !uks b3lyp def2-svp tightscf
|  2>
|  3> %paras
|  4>   rHH = 0.5,3.0,21
|  5> end
|  6>
|  7> %scf
|  8>   maxiter 250
|  9> end
| 10>
| 11> *int 1 2
| 12> H 0 0 0 0 0 0
| 13> H 1 0 0 {rHH} 0 0
| 14> *
| 15>
| 16>                          ****END OF INPUT****
 Total Charge           Charge          ....    1
 Multiplicity           Mult            ....    2
 Number of Electrons    NEL             ....    1
 Basis Dimension        Dim             ....   10

ORBITAL ENERGIES
----------------
                 SPIN UP ORBITALS
  NO   OCC          E(Eh)            E(eV)
   0   1.0000      -1.202734       -32.7280
   1   0.0000      -0.244341        -6.6489
   2   0.0000      -0.099354        -2.7036
   3   0.0000       0.397337        10.8121
   4   0.0000       0.540003        14.6942
   5   0.0000       0.540003        14.6942

                 SPIN DOWN ORBITALS
  NO   OCC          E(Eh)            E(eV)

MULLIKEN ATOMIC CHARGES AND SPIN POPULATIONS
--------------------------------------------
   0 H :    0.500000    0.500000
   1 H :    0.500000    0.500000
Sum of atomic charges         :    1.0000000

LOEWDIN ATOMIC CHARGES AND SPIN POPULATIONS
-------------------------------------------
   0 H :    0.500000    0.500000
   1 H :    0.500000    0.500000

  Mayer bond orders larger than 0.100000
B(  0-H ,  1-H ) :   0.5000

FINAL SINGLE POINT ENERGY        -0.395725375520
FINAL SINGLE POINT ENERGY        -0.510458717585
FINAL SINGLE POINT ENERGY        -0.566098543150
FINAL SINGLE POINT ENERGY        -0.592241885405
FINAL SINGLE POINT ENERGY        -0.602819328143
FINAL SINGLE POINT ENERGY        -0.605027836462
FINAL SINGLE POINT ENERGY        -0.602777704056
FINAL SINGLE POINT ENERGY        -0.598243997777
FINAL SINGLE POINT ENERGY        -0.592688039389
FINAL SINGLE POINT ENERGY        -0.586898154319
FINAL SINGLE POINT ENERGY        -0.576423780368
FINAL SINGLE POINT ENERGY        -0.572148330080
FINAL SINGLE POINT ENERGY        -0.568565117015
FINAL SINGLE POINT ENERGY        -0.565630374135
FINAL SINGLE POINT ENERGY        -0.563276249954
FINAL SINGLE POINT ENERGY        -0.561432915996
FINAL SINGLE POINT ENERGY        -0.560032690640
FINAL SINGLE POINT ENERGY        -0.559010410616
FINAL SINGLE POINT ENERGY        -0.558307994188

CARTESIAN COORDINATES (ANGSTROEM)
---------------------------------
  H      0.000000    0.000000    0.000000
  H      3.000000    0.000000    0.000000

FINAL SINGLE POINT ENERGY        -0.557874824679

DIPOLE MOMENT
-------------
                                X             Y             Z
Electronic contribution:     -0.00013       0.00000       0.00000
Nuclear contribution   :      0.00000       0.00000       0.00000
                        -----------------------------------------
Total Dipole Moment    :     -0.00013       0.00000       0.00000
                        -----------------------------------------
Magnitude (a.u.)       :      0.00013
Magnitude (Debye)      :      0.00034

Rotational constants in cm-1:     0.000000     3.716412     3.716412
Rotational constants in MHz :     0.000000 111415.229208 111415.229208

                             ****ORCA TERMINATED NORMALLY****
TOTAL RUN TIME: 0 days 0 hours 0 minutes 22 seconds 905 msec
