                         Program Version 5.0.2 -  RELEASE  -
|  1> !uks cam-b3lyp def2-svp tightscf
|  2>
|  3> %paras
|  4>   rHH = 0.5,3.0,21
|  5> end
|  6>
|  7> %scf
|  8>   maxiter 250
|  9> end
| 10>
| 11> *int 1 2
| 12> H 0 0 0 0 0 0
| 13> H 1 0 0 {rHH} 0 0
| 14> *
| 15>
| 16>                          ****END OF INPUT****
 Total Charge           Charge          ....    1
 Multiplicity           Mult            ....    2
 Number of Electrons    NEL             ....    1
 Basis Dimension        Dim             ....   10

ORBITAL ENERGIES
----------------
                 SPIN UP ORBITALS
  NO   OCC          E(Eh)            E(eV)
   0   1.0000      -1.274863       -34.6908
   1   0.0000      -0.200106        -5.4452
   2   0.0000      -0.060414        -1.6439
   3   0.0000       0.453170        12.3314
   4   0.0000       0.611128        16.6296
   5   0.0000       0.611128        16.6296

                 SPIN DOWN ORBITALS
  NO   OCC          E(Eh)            E(eV)

MULLIKEN ATOMIC CHARGES AND SPIN POPULATIONS
--------------------------------------------
   0 H :    0.500000    0.500000
   1 H :    0.500000    0.500000
Sum of atomic charges         :    1.0000000

LOEWDIN ATOMIC CHARGES AND SPIN POPULATIONS
-------------------------------------------
   0 H :    0.500000    0.500000
   1 H :    0.500000    0.500000

  Mayer bond orders larger than 0.100000
B(  0-H ,  1-H ) :   0.5000

FINAL SINGLE POINT ENERGY        -0.393148822667
FINAL SINGLE POINT ENERGY        -0.508209420841
FINAL SINGLE POINT ENERGY        -0.564077642532
FINAL SINGLE POINT ENERGY        -0.590335684396
FINAL SINGLE POINT ENERGY        -0.600907655602
FINAL SINGLE POINT ENERGY        -0.602986514467
FINAL SINGLE POINT ENERGY        -0.600479489479
FINAL SINGLE POINT ENERGY        -0.595560148281
FINAL SINGLE POINT ENERGY        -0.589493058399
FINAL SINGLE POINT ENERGY        -0.583078207802
FINAL SINGLE POINT ENERGY        -0.571090021365
FINAL SINGLE POINT ENERGY        -0.565964659745
FINAL SINGLE POINT ENERGY        -0.561490834633
FINAL SINGLE POINT ENERGY        -0.557637972802
FINAL SINGLE POINT ENERGY        -0.554351377230
FINAL SINGLE POINT ENERGY        -0.551573370615
FINAL SINGLE POINT ENERGY        -0.549247200107
FINAL SINGLE POINT ENERGY        -0.547317717627
FINAL SINGLE POINT ENERGY        -0.545734486919

CARTESIAN COORDINATES (ANGSTROEM)
---------------------------------
  H      0.000000    0.000000    0.000000
  H      3.000000    0.000000    0.000000

FINAL SINGLE POINT ENERGY        -0.544451923183

DIPOLE MOMENT
-------------
                                X             Y             Z
Electronic contribution:     -0.00000       0.00000       0.00000
Nuclear contribution   :      0.00000       0.00000       0.00000
                        -----------------------------------------
Total Dipole Moment    :     -0.00000       0.00000       0.00000
                        -----------------------------------------
Magnitude (a.u.)       :      0.00000
Magnitude (Debye)      :      0.00000

Rotational constants in cm-1:     0.000000     3.716412     3.716412
Rotational constants in MHz :     0.000000 111415.229208 111415.229208

                             ****ORCA TERMINATED NORMALLY****
TOTAL RUN TIME: 0 days 0 hours 0 minutes 25 seconds 556 msec
