                         Program Version 5.0.2 -  RELEASE  -
|  1> !uhf def2-svp tightscf
|  2>
|  3> %paras
|  4>   rHH = 0.5,3.0,21
|  5> end
|  6>
|  7> %scf
|  8>   maxiter 250
|  9> end
| 10>
| 11> *int 1 2
| 12> H 0 0 0 0 0 0
| 13> H 1 0 0 {rHH} 0 0
| 14> *
| 15>
| 16>                          ****END OF INPUT****
 Total Charge           Charge          ....    1
 Multiplicity           Mult            ....    2
 Number of Electrons    NEL             ....    1
 Basis Dimension        Dim             ....   10

ORBITAL ENERGIES
----------------
                 SPIN UP ORBITALS
  NO   OCC          E(Eh)            E(eV)
   0   1.0000      -1.460544       -39.7434
   1   0.0000      -0.140042        -3.8107
   2   0.0000      -0.007233        -0.1968
   3   0.0000       0.589167        16.0321
   4   0.0000       0.770760        20.9734
   5   0.0000       0.770760        20.9734

                 SPIN DOWN ORBITALS
  NO   OCC          E(Eh)            E(eV)

MULLIKEN ATOMIC CHARGES AND SPIN POPULATIONS
--------------------------------------------
   0 H :    0.500000    0.500000
   1 H :    0.500000    0.500000
Sum of atomic charges         :    1.0000000

LOEWDIN ATOMIC CHARGES AND SPIN POPULATIONS
-------------------------------------------
   0 H :    0.500000    0.500000
   1 H :    0.500000    0.500000

  Mayer bond orders larger than 0.100000
B(  0-H ,  1-H ) :   0.5000

FINAL SINGLE POINT ENERGY        -0.402189303322
FINAL SINGLE POINT ENERGY        -0.515116632727
FINAL SINGLE POINT ENERGY        -0.568404104054
FINAL SINGLE POINT ENERGY        -0.591853747270
FINAL SINGLE POINT ENERGY        -0.599560308727
FINAL SINGLE POINT ENERGY        -0.598803173239
FINAL SINGLE POINT ENERGY        -0.593517706038
FINAL SINGLE POINT ENERGY        -0.585891945912
FINAL SINGLE POINT ENERGY        -0.577222363573
FINAL SINGLE POINT ENERGY        -0.568355744527
FINAL SINGLE POINT ENERGY        -0.552010709918
FINAL SINGLE POINT ENERGY        -0.544952196950
FINAL SINGLE POINT ENERGY        -0.538670019494
FINAL SINGLE POINT ENERGY        -0.533111933104
FINAL SINGLE POINT ENERGY        -0.528214035098
FINAL SINGLE POINT ENERGY        -0.523914816327
FINAL SINGLE POINT ENERGY        -0.520158045782
FINAL SINGLE POINT ENERGY        -0.516891967571
FINAL SINGLE POINT ENERGY        -0.514068100686

CARTESIAN COORDINATES (ANGSTROEM)
---------------------------------
  H      0.000000    0.000000    0.000000
  H      3.000000    0.000000    0.000000

FINAL SINGLE POINT ENERGY        -0.511640562560

DIPOLE MOMENT
-------------
                                X             Y             Z
Electronic contribution:     -0.00000       0.00000      -0.00000
Nuclear contribution   :      0.00000       0.00000       0.00000
                        -----------------------------------------
Total Dipole Moment    :     -0.00000       0.00000      -0.00000
                        -----------------------------------------
Magnitude (a.u.)       :      0.00000
Magnitude (Debye)      :      0.00000

Rotational constants in cm-1:     0.000000     3.716412     3.716412
Rotational constants in MHz :     0.000000 111415.229208 111415.229208

                             ****ORCA TERMINATED NORMALLY****
TOTAL RUN TIME: 0 days 0 hours 0 minutes 10 seconds 0 msec
