                         Program Version 5.0.2 -  RELEASE  -
|  1> !uks lc-blyp ma-def2-tzvpp tightscf
|  2>
|  3> %paras
|  4>   rHeHe = 5,10,21
|  5> end
|  6>
|  7> %scf
|  8>   maxiter 250
|  9> end
| 10>
| 11> *int 0 1
| 12> he 0 0 0 0 0 0
| 13> he 1 0 0 {rHeHe} 0 0
| 14> *
| 15>
| 16>                          ****END OF INPUT****
 Total Charge           Charge          ....    0
 Multiplicity           Mult            ....    1
 Number of Electrons    NEL             ....    4
 Basis Dimension        Dim             ....   36

ORBITAL ENERGIES
----------------
                 SPIN UP ORBITALS
  NO   OCC          E(Eh)            E(eV)
   0   1.0000      -0.750087       -20.4109
   1   1.0000      -0.750014       -20.4089
   2   0.0000       0.143496         3.9047
   3   0.0000       0.173269         4.7149
   4   0.0000       0.458922        12.4879
   5   0.0000       0.459391        12.5007
   6   0.0000       0.459391        12.5007

                 SPIN DOWN ORBITALS
  NO   OCC          E(Eh)            E(eV)
   0   1.0000      -0.750087       -20.4109
   1   1.0000      -0.750014       -20.4089
   2   0.0000       0.143496         3.9047
   3   0.0000       0.173269         4.7149
   4   0.0000       0.458922        12.4879
   5   0.0000       0.459391        12.5007
   6   0.0000       0.459391        12.5007

MULLIKEN ATOMIC CHARGES AND SPIN POPULATIONS
--------------------------------------------
   0 He:   -0.000000   -0.000000
   1 He:    0.000000   -0.000000
Sum of atomic charges         :    0.0000000

LOEWDIN ATOMIC CHARGES AND SPIN POPULATIONS
-------------------------------------------
   0 He:    0.000000   -0.000000
   1 He:   -0.000000   -0.000000

FINAL SINGLE POINT ENERGY        -5.733203936786
FINAL SINGLE POINT ENERGY        -5.733210194185
FINAL SINGLE POINT ENERGY        -5.733216932544
FINAL SINGLE POINT ENERGY        -5.733212604413
FINAL SINGLE POINT ENERGY        -5.733208434849
FINAL SINGLE POINT ENERGY        -5.733207790426
FINAL SINGLE POINT ENERGY        -5.733208353113
FINAL SINGLE POINT ENERGY        -5.733208884733
FINAL SINGLE POINT ENERGY        -5.733208857696
FINAL SINGLE POINT ENERGY        -5.733208806243
FINAL SINGLE POINT ENERGY        -5.733208805685
FINAL SINGLE POINT ENERGY        -5.733208813720
FINAL SINGLE POINT ENERGY        -5.733208821060
FINAL SINGLE POINT ENERGY        -5.733208827131
FINAL SINGLE POINT ENERGY        -5.733208831972
FINAL SINGLE POINT ENERGY        -5.733208835786
FINAL SINGLE POINT ENERGY        -5.733208838789
FINAL SINGLE POINT ENERGY        -5.733208841162
FINAL SINGLE POINT ENERGY        -5.733208843048

CARTESIAN COORDINATES (ANGSTROEM)
---------------------------------
  He     0.000000    0.000000    0.000000
  He    10.000000    0.000000    0.000000

FINAL SINGLE POINT ENERGY        -5.733208844557

DIPOLE MOMENT
-------------
                                X             Y             Z
Electronic contribution:      0.00000       0.00000       0.00000
Nuclear contribution   :      0.00000       0.00000       0.00000
                        -----------------------------------------
Total Dipole Moment    :      0.00000       0.00000       0.00000
                        -----------------------------------------
Magnitude (a.u.)       :      0.00000
Magnitude (Debye)      :      0.00000

Rotational constants in cm-1:     0.000000     0.084225     0.084225
Rotational constants in MHz :     0.000000  2525.003646  2525.003646

                             ****ORCA TERMINATED NORMALLY****
TOTAL RUN TIME: 0 days 0 hours 0 minutes 13 seconds 481 msec
