                         Program Version 5.0.2 -  RELEASE  -
|  1> !uhf ccsd(t) ma-def2-tzvpp tightscf
|  2>
|  3> %paras
|  4>   rHeHe = 5,10,21
|  5> end
|  6>
|  7> %scf
|  8>   maxiter 250
|  9> end
| 10>
| 11> *int 0 1
| 12> he 0 0 0 0 0 0
| 13> he 1 0 0 {rHeHe} 0 0
| 14> *
| 15>
| 16>                          ****END OF INPUT****
 Total Charge           Charge          ....    0
 Multiplicity           Mult            ....    1
 Number of Electrons    NEL             ....    4
 Basis Dimension        Dim             ....   36

ORBITAL ENERGIES
----------------
                 SPIN UP ORBITALS
  NO   OCC          E(Eh)            E(eV)
   0   1.0000      -0.917621       -24.9697
   1   1.0000      -0.917596       -24.9691
   2   0.0000       0.162266         4.4155
   3   0.0000       0.193931         5.2771
   4   0.0000       0.518010        14.0958
   5   0.0000       0.518542        14.1102
   6   0.0000       0.518542        14.1102

                 SPIN DOWN ORBITALS
  NO   OCC          E(Eh)            E(eV)
   0   1.0000      -0.917621       -24.9697
   1   1.0000      -0.917596       -24.9691
   2   0.0000       0.162266         4.4155
   3   0.0000       0.193931         5.2771
   4   0.0000       0.518010        14.0958
   5   0.0000       0.518542        14.1102
   6   0.0000       0.518542        14.1102

E(0)                                       ...     -5.719981572
E(0)                                       ...     -5.719981572
E(CORR)                                    ...     -0.078460355
E(TOT)                                     ...     -5.798441927
E(CCSD(T))                                 ...     -5.798442050

MULLIKEN ATOMIC CHARGES AND SPIN DENSITIES
------------------------------------------
   0 He:    0.000000   -0.000000
   1 He:    0.000000   -0.000000
Sum of atomic charges       :    0.0000000

LOEWDIN ATOMIC CHARGES AND SPIN DENSITIES
-----------------------------------------
   0 He:    0.000000   -0.000000
   1 He:    0.000000   -0.000000

FINAL SINGLE POINT ENERGY        -5.798442049828
E(0)                                       ...     -5.719981445
FINAL SINGLE POINT ENERGY        -5.798441367957
FINAL SINGLE POINT ENERGY        -5.798440922446
FINAL SINGLE POINT ENERGY        -5.798440622895
FINAL SINGLE POINT ENERGY        -5.798440414167
FINAL SINGLE POINT ENERGY        -5.798440263755
FINAL SINGLE POINT ENERGY        -5.798440152405
FINAL SINGLE POINT ENERGY        -5.798440068280
FINAL SINGLE POINT ENERGY        -5.798440003744
FINAL SINGLE POINT ENERGY        -5.798439953637
FINAL SINGLE POINT ENERGY        -5.798439883247
FINAL SINGLE POINT ENERGY        -5.798439858456
FINAL SINGLE POINT ENERGY        -5.798439838544
FINAL SINGLE POINT ENERGY        -5.798439822444
FINAL SINGLE POINT ENERGY        -5.798439809344
FINAL SINGLE POINT ENERGY        -5.798439798621
FINAL SINGLE POINT ENERGY        -5.798439789795
FINAL SINGLE POINT ENERGY        -5.798439782492
E(CCSD(T))                                 ...     -5.798439776
FINAL SINGLE POINT ENERGY        -5.798439776419

CARTESIAN COORDINATES (ANGSTROEM)
---------------------------------
  He     0.000000    0.000000    0.000000
  He    10.000000    0.000000    0.000000

E(0)                                       ...     -5.719981353
E(0)                                       ...     -5.719981353
E(CORR)                                    ...     -0.078458416
E(TOT)                                     ...     -5.798439769
E(CCSD(T))                                 ...     -5.798439771
FINAL SINGLE POINT ENERGY        -5.798439771344

DIPOLE MOMENT
-------------
                                X             Y             Z
Electronic contribution:     -0.00000       0.00000       0.00000
Nuclear contribution   :      0.00000       0.00000       0.00000
                        -----------------------------------------
Total Dipole Moment    :     -0.00000       0.00000       0.00000
                        -----------------------------------------
Magnitude (a.u.)       :      0.00000
Magnitude (Debye)      :      0.00000

Rotational constants in cm-1:     0.000000     0.084225     0.084225
Rotational constants in MHz :     0.000000  2525.003646  2525.003646

                             ****ORCA TERMINATED NORMALLY****
TOTAL RUN TIME: 0 days 0 hours 0 minutes 28 seconds 971 msec
