                         Program Version 5.0.2 -  RELEASE  -
|  1> !uks cam-b3lyp ma-def2-tzvpp tightscf
|  2>
|  3> %paras
|  4>   rHeHe = 5,10,21
|  5> end
|  6>
|  7> %scf
|  8>   maxiter 250
|  9> end
| 10>
| 11> *int 0 1
| 12> he 0 0 0 0 0 0
| 13> he 1 0 0 {rHeHe} 0 0
| 14> *
| 15>
| 16>                          ****END OF INPUT****
 Total Charge           Charge          ....    0
 Multiplicity           Mult            ....    1
 Number of Electrons    NEL             ....    4
 Basis Dimension        Dim             ....   36

ORBITAL ENERGIES
----------------
                 SPIN UP ORBITALS
  NO   OCC          E(Eh)            E(eV)
   0   1.0000      -0.733396       -19.9567
   1   1.0000      -0.733344       -19.9553
   2   0.0000       0.120441         3.2774
   3   0.0000       0.148983         4.0540
   4   0.0000       0.423689        11.5292
   5   0.0000       0.424179        11.5425
   6   0.0000       0.424179        11.5425

                 SPIN DOWN ORBITALS
  NO   OCC          E(Eh)            E(eV)
   0   1.0000      -0.733396       -19.9567
   1   1.0000      -0.733344       -19.9553
   2   0.0000       0.120441         3.2774
   3   0.0000       0.148983         4.0540
   4   0.0000       0.423689        11.5292
   5   0.0000       0.424179        11.5425
   6   0.0000       0.424179        11.5425

MULLIKEN ATOMIC CHARGES AND SPIN POPULATIONS
--------------------------------------------
   0 He:   -0.000000    0.000000
   1 He:    0.000000    0.000000
Sum of atomic charges         :    0.0000000

LOEWDIN ATOMIC CHARGES AND SPIN POPULATIONS
-------------------------------------------
   0 He:    0.000000    0.000000
   1 He:   -0.000000    0.000000

FINAL SINGLE POINT ENERGY        -5.799584517790
FINAL SINGLE POINT ENERGY        -5.799588918965
FINAL SINGLE POINT ENERGY        -5.799602197134
FINAL SINGLE POINT ENERGY        -5.799605292891
FINAL SINGLE POINT ENERGY        -5.799600344659
FINAL SINGLE POINT ENERGY        -5.799595893431
FINAL SINGLE POINT ENERGY        -5.799593065016
FINAL SINGLE POINT ENERGY        -5.799590998457
FINAL SINGLE POINT ENERGY        -5.799590024564
FINAL SINGLE POINT ENERGY        -5.799590481299
FINAL SINGLE POINT ENERGY        -5.799591322857
FINAL SINGLE POINT ENERGY        -5.799591826683
FINAL SINGLE POINT ENERGY        -5.799592258357
FINAL SINGLE POINT ENERGY        -5.799592619927
FINAL SINGLE POINT ENERGY        -5.799592894692
FINAL SINGLE POINT ENERGY        -5.799592895887
FINAL SINGLE POINT ENERGY        -5.799592996365
FINAL SINGLE POINT ENERGY        -5.799593242370
FINAL SINGLE POINT ENERGY        -5.799593437890

CARTESIAN COORDINATES (ANGSTROEM)
---------------------------------
  He     0.000000    0.000000    0.000000
  He    10.000000    0.000000    0.000000

FINAL SINGLE POINT ENERGY        -5.799593512519

DIPOLE MOMENT
-------------
                                X             Y             Z
Electronic contribution:      0.00000       0.00000       0.00000
Nuclear contribution   :      0.00000       0.00000       0.00000
                        -----------------------------------------
Total Dipole Moment    :      0.00000       0.00000       0.00000
                        -----------------------------------------
Magnitude (a.u.)       :      0.00000
Magnitude (Debye)      :      0.00000

Rotational constants in cm-1:     0.000000     0.084225     0.084225
Rotational constants in MHz :     0.000000  2525.003646  2525.003646

                             ****ORCA TERMINATED NORMALLY****
TOTAL RUN TIME: 0 days 0 hours 0 minutes 20 seconds 813 msec
