                         Program Version 5.0.2 -  RELEASE  -
|  1> !uks lc-pbe ma-def2-tzvpp tightscf
|  2>
|  3> %paras
|  4>   rHeHe = 5,10,21
|  5> end
|  6>
|  7> %scf
|  8>   maxiter 250
|  9> end
| 10>
| 11> *int 0 1
| 12> he 0 0 0 0 0 0
| 13> he 1 0 0 {rHeHe} 0 0
| 14> *
| 15>
| 16>                          ****END OF INPUT****
 Total Charge           Charge          ....    0
 Multiplicity           Mult            ....    1
 Number of Electrons    NEL             ....    4
 Basis Dimension        Dim             ....   36

ORBITAL ENERGIES
----------------
                 SPIN UP ORBITALS
  NO   OCC          E(Eh)            E(eV)
   0   1.0000      -0.798565       -21.7300
   1   1.0000      -0.798509       -21.7285
   2   0.0000       0.161111         4.3841
   3   0.0000       0.192274         5.2320
   4   0.0000       0.490483        13.3467
   5   0.0000       0.490978        13.3602
   6   0.0000       0.490978        13.3602

                 SPIN DOWN ORBITALS
  NO   OCC          E(Eh)            E(eV)
   0   1.0000      -0.798565       -21.7300
   1   1.0000      -0.798509       -21.7285
   2   0.0000       0.161111         4.3841
   3   0.0000       0.192274         5.2320
   4   0.0000       0.490483        13.3467
   5   0.0000       0.490978        13.3602
   6   0.0000       0.490978        13.3602

MULLIKEN ATOMIC CHARGES AND SPIN POPULATIONS
--------------------------------------------
   0 He:   -0.000000    0.000000
   1 He:    0.000000    0.000000
Sum of atomic charges         :   -0.0000000

LOEWDIN ATOMIC CHARGES AND SPIN POPULATIONS
-------------------------------------------
   0 He:    0.000000    0.000000
   1 He:   -0.000000    0.000000

FINAL SINGLE POINT ENERGY        -5.741541300061
FINAL SINGLE POINT ENERGY        -5.741545746789
FINAL SINGLE POINT ENERGY        -5.741551009021
FINAL SINGLE POINT ENERGY        -5.741548189118
FINAL SINGLE POINT ENERGY        -5.741545323225
FINAL SINGLE POINT ENERGY        -5.741544478581
FINAL SINGLE POINT ENERGY        -5.741544414521
FINAL SINGLE POINT ENERGY        -5.741544543387
FINAL SINGLE POINT ENERGY        -5.741544675504
FINAL SINGLE POINT ENERGY        -5.741544779060
FINAL SINGLE POINT ENERGY        -5.741544916966
FINAL SINGLE POINT ENERGY        -5.741544962460
FINAL SINGLE POINT ENERGY        -5.741544997501
FINAL SINGLE POINT ENERGY        -5.741545024684
FINAL SINGLE POINT ENERGY        -5.741545045915
FINAL SINGLE POINT ENERGY        -5.741545062605
FINAL SINGLE POINT ENERGY        -5.741545075805
FINAL SINGLE POINT ENERGY        -5.741545086307
FINAL SINGLE POINT ENERGY        -5.741545094730

CARTESIAN COORDINATES (ANGSTROEM)
---------------------------------
  He     0.000000    0.000000    0.000000
  He    10.000000    0.000000    0.000000

FINAL SINGLE POINT ENERGY        -5.741545101483

DIPOLE MOMENT
-------------
                                X             Y             Z
Electronic contribution:      0.00000       0.00000       0.00000
Nuclear contribution   :      0.00000       0.00000       0.00000
                        -----------------------------------------
Total Dipole Moment    :      0.00000       0.00000       0.00000
                        -----------------------------------------
Magnitude (a.u.)       :      0.00000
Magnitude (Debye)      :      0.00000

Rotational constants in cm-1:     0.000000     0.084225     0.084225
Rotational constants in MHz :     0.000000  2525.003646  2525.003646

                             ****ORCA TERMINATED NORMALLY****
TOTAL RUN TIME: 0 days 0 hours 0 minutes 13 seconds 154 msec
