                         Program Version 5.0.2 -  RELEASE  -
|  1> !uks wb97x ma-def2-tzvpp tightscf
|  2>
|  3> %paras
|  4>   rHeHe = 5,10,21
|  5> end
|  6>
|  7> %scf
|  8>   maxiter 250
|  9> end
| 10>
| 11> *int 0 1
| 12> he 0 0 0 0 0 0
| 13> he 1 0 0 {rHeHe} 0 0
| 14> *
| 15>
| 16>                          ****END OF INPUT****
 Total Charge           Charge          ....    0
 Multiplicity           Mult            ....    1
 Number of Electrons    NEL             ....    4
 Basis Dimension        Dim             ....   36

ORBITAL ENERGIES
----------------
                 SPIN UP ORBITALS
  NO   OCC          E(Eh)            E(eV)
   0   1.0000      -0.768007       -20.8985
   1   1.0000      -0.767962       -20.8973
   2   0.0000       0.176376         4.7994
   3   0.0000       0.207317         5.6414
   4   0.0000       0.498024        13.5519
   5   0.0000       0.498493        13.5647
   6   0.0000       0.498493        13.5647

                 SPIN DOWN ORBITALS
  NO   OCC          E(Eh)            E(eV)
   0   1.0000      -0.768007       -20.8985
   1   1.0000      -0.767962       -20.8973
   2   0.0000       0.176376         4.7994
   3   0.0000       0.207317         5.6414
   4   0.0000       0.498024        13.5519
   5   0.0000       0.498493        13.5647
   6   0.0000       0.498493        13.5647

MULLIKEN ATOMIC CHARGES AND SPIN POPULATIONS
--------------------------------------------
   0 He:   -0.000000    0.000000
   1 He:    0.000000    0.000000
Sum of atomic charges         :    0.0000000

LOEWDIN ATOMIC CHARGES AND SPIN POPULATIONS
-------------------------------------------
   0 He:    0.000000    0.000000
   1 He:   -0.000000    0.000000

FINAL SINGLE POINT ENERGY        -5.805512943960
FINAL SINGLE POINT ENERGY        -5.805519589953
FINAL SINGLE POINT ENERGY        -5.805528706026
FINAL SINGLE POINT ENERGY        -5.805526650386
FINAL SINGLE POINT ENERGY        -5.805520068448
FINAL SINGLE POINT ENERGY        -5.805517940296
FINAL SINGLE POINT ENERGY        -5.805519051894
FINAL SINGLE POINT ENERGY        -5.805520172262
FINAL SINGLE POINT ENERGY        -5.805520610411
FINAL SINGLE POINT ENERGY        -5.805521100233
FINAL SINGLE POINT ENERGY        -5.805520867027
FINAL SINGLE POINT ENERGY        -5.805520896696
FINAL SINGLE POINT ENERGY        -5.805520965110
FINAL SINGLE POINT ENERGY        -5.805520995404
FINAL SINGLE POINT ENERGY        -5.805520938673
FINAL SINGLE POINT ENERGY        -5.805520680596
FINAL SINGLE POINT ENERGY        -5.805520612836
FINAL SINGLE POINT ENERGY        -5.805520741663
FINAL SINGLE POINT ENERGY        -5.805520831368

CARTESIAN COORDINATES (ANGSTROEM)
---------------------------------
  He     0.000000    0.000000    0.000000
  He    10.000000    0.000000    0.000000

FINAL SINGLE POINT ENERGY        -5.805520811651

DIPOLE MOMENT
-------------
                                X             Y             Z
Electronic contribution:     -0.00000       0.00000       0.00000
Nuclear contribution   :      0.00000       0.00000       0.00000
                        -----------------------------------------
Total Dipole Moment    :     -0.00000       0.00000       0.00000
                        -----------------------------------------
Magnitude (a.u.)       :      0.00000
Magnitude (Debye)      :      0.00000

Rotational constants in cm-1:     0.000000     0.084225     0.084225
Rotational constants in MHz :     0.000000  2525.003646  2525.003646

                             ****ORCA TERMINATED NORMALLY****
TOTAL RUN TIME: 0 days 0 hours 0 minutes 20 seconds 546 msec
