                         Program Version 5.0.2 -  RELEASE  -
|  1> !uks pbe0 ma-def2-tzvpp tightscf
|  2>
|  3> %paras
|  4>   rHeHe = 5,10,21
|  5> end
|  6>
|  7> %scf
|  8>   maxiter 250
|  9> end
| 10>
| 11> *int 0 1
| 12> he 0 0 0 0 0 0
| 13> he 1 0 0 {rHeHe} 0 0
| 14> *
| 15>
| 16>                          ****END OF INPUT****
 Total Charge           Charge          ....    0
 Multiplicity           Mult            ....    1
 Number of Electrons    NEL             ....    4
 Basis Dimension        Dim             ....   36

ORBITAL ENERGIES
----------------
                 SPIN UP ORBITALS
  NO   OCC          E(Eh)            E(eV)
   0   1.0000      -0.669487       -18.2177
   1   1.0000      -0.669445       -18.2165
   2   0.0000       0.106452         2.8967
   3   0.0000       0.134288         3.6542
   4   0.0000       0.392832        10.6895
   5   0.0000       0.393315        10.7027
   6   0.0000       0.393315        10.7027

                 SPIN DOWN ORBITALS
  NO   OCC          E(Eh)            E(eV)
   0   1.0000      -0.669487       -18.2177
   1   1.0000      -0.669445       -18.2165
   2   0.0000       0.106452         2.8967
   3   0.0000       0.134288         3.6542
   4   0.0000       0.392832        10.6895
   5   0.0000       0.393315        10.7027
   6   0.0000       0.393315        10.7027

MULLIKEN ATOMIC CHARGES AND SPIN POPULATIONS
--------------------------------------------
   0 He:   -0.000000    0.000000
   1 He:    0.000000    0.000000
Sum of atomic charges         :    0.0000000

LOEWDIN ATOMIC CHARGES AND SPIN POPULATIONS
-------------------------------------------
   0 He:    0.000000    0.000000
   1 He:   -0.000000    0.000000

FINAL SINGLE POINT ENERGY        -5.787103183662
FINAL SINGLE POINT ENERGY        -5.787108571119
FINAL SINGLE POINT ENERGY        -5.787128523005
FINAL SINGLE POINT ENERGY        -5.787136276663
FINAL SINGLE POINT ENERGY        -5.787128578779
FINAL SINGLE POINT ENERGY        -5.787120545410
FINAL SINGLE POINT ENERGY        -5.787115910369
FINAL SINGLE POINT ENERGY        -5.787113895226
FINAL SINGLE POINT ENERGY        -5.787113610662
FINAL SINGLE POINT ENERGY        -5.787114668587
FINAL SINGLE POINT ENERGY        -5.787116259773
FINAL SINGLE POINT ENERGY        -5.787116884127
FINAL SINGLE POINT ENERGY        -5.787117335396
FINAL SINGLE POINT ENERGY        -5.787117771541
FINAL SINGLE POINT ENERGY        -5.787118207115
FINAL SINGLE POINT ENERGY        -5.787118302009
FINAL SINGLE POINT ENERGY        -5.787118382065
FINAL SINGLE POINT ENERGY        -5.787118568936
FINAL SINGLE POINT ENERGY        -5.787118743382

CARTESIAN COORDINATES (ANGSTROEM)
---------------------------------
  He     0.000000    0.000000    0.000000
  He    10.000000    0.000000    0.000000

FINAL SINGLE POINT ENERGY        -5.787118816879

DIPOLE MOMENT
-------------
                                X             Y             Z
Electronic contribution:      0.00000      -0.00000      -0.00000
Nuclear contribution   :      0.00000       0.00000       0.00000
                        -----------------------------------------
Total Dipole Moment    :      0.00000      -0.00000      -0.00000
                        -----------------------------------------
Magnitude (a.u.)       :      0.00000
Magnitude (Debye)      :      0.00000

Rotational constants in cm-1:     0.000000     0.084225     0.084225
Rotational constants in MHz :     0.000000  2525.003646  2525.003646

                             ****ORCA TERMINATED NORMALLY****
TOTAL RUN TIME: 0 days 0 hours 0 minutes 18 seconds 448 msec
