                         Program Version 5.0.2 -  RELEASE  -
|  1> !uks m06 ma-def2-tzvpp tightscf
|  2>
|  3> %paras
|  4>   rHeHe = 5,10,21
|  5> end
|  6>
|  7> %scf
|  8>   maxiter 250
|  9> end
| 10>
| 11> *int 0 1
| 12> he 0 0 0 0 0 0
| 13> he 1 0 0 {rHeHe} 0 0
| 14> *
| 15>
| 16>                          ****END OF INPUT****
 Total Charge           Charge          ....    0
 Multiplicity           Mult            ....    1
 Number of Electrons    NEL             ....    4
 Basis Dimension        Dim             ....   36

ORBITAL ENERGIES
----------------
                 SPIN UP ORBITALS
  NO   OCC          E(Eh)            E(eV)
   0   1.0000      -0.668384       -18.1876
   1   1.0000      -0.668351       -18.1868
   2   0.0000       0.043035         1.1710
   3   0.0000       0.072416         1.9705
   4   0.0000       0.384436        10.4610
   5   0.0000       0.385045        10.4776
   6   0.0000       0.385045        10.4776

                 SPIN DOWN ORBITALS
  NO   OCC          E(Eh)            E(eV)
   0   1.0000      -0.668384       -18.1876
   1   1.0000      -0.668351       -18.1868
   2   0.0000       0.043035         1.1710
   3   0.0000       0.072416         1.9705
   4   0.0000       0.384436        10.4610
   5   0.0000       0.385045        10.4776
   6   0.0000       0.385045        10.4776

MULLIKEN ATOMIC CHARGES AND SPIN POPULATIONS
--------------------------------------------
   0 He:   -0.000000   -0.000000
   1 He:    0.000000    0.000000
Sum of atomic charges         :    0.0000000

LOEWDIN ATOMIC CHARGES AND SPIN POPULATIONS
-------------------------------------------
   0 He:    0.000000   -0.000000
   1 He:   -0.000000    0.000000

FINAL SINGLE POINT ENERGY        -5.816611827409
FINAL SINGLE POINT ENERGY        -5.816611197697
FINAL SINGLE POINT ENERGY        -5.816636308645
FINAL SINGLE POINT ENERGY        -5.816644554260
FINAL SINGLE POINT ENERGY        -5.816640514925
FINAL SINGLE POINT ENERGY        -5.816630307655
FINAL SINGLE POINT ENERGY        -5.816620569598
FINAL SINGLE POINT ENERGY        -5.816614904041
FINAL SINGLE POINT ENERGY        -5.816613803016
FINAL SINGLE POINT ENERGY        -5.816615369905
FINAL SINGLE POINT ENERGY        -5.816618381478
FINAL SINGLE POINT ENERGY        -5.816619597755
FINAL SINGLE POINT ENERGY        -5.816620500563
FINAL SINGLE POINT ENERGY        -5.816621267269
FINAL SINGLE POINT ENERGY        -5.816621972523
FINAL SINGLE POINT ENERGY        -5.816622285760
FINAL SINGLE POINT ENERGY        -5.816622558909
FINAL SINGLE POINT ENERGY        -5.816622907970
FINAL SINGLE POINT ENERGY        -5.816623203820

CARTESIAN COORDINATES (ANGSTROEM)
---------------------------------
  He     0.000000    0.000000    0.000000
  He    10.000000    0.000000    0.000000

FINAL SINGLE POINT ENERGY        -5.816623367509

DIPOLE MOMENT
-------------
                                X             Y             Z
Electronic contribution:     -0.00000       0.00000       0.00000
Nuclear contribution   :      0.00000       0.00000       0.00000
                        -----------------------------------------
Total Dipole Moment    :     -0.00000       0.00000       0.00000
                        -----------------------------------------
Magnitude (a.u.)       :      0.00000
Magnitude (Debye)      :      0.00000

Rotational constants in cm-1:     0.000000     0.084225     0.084225
Rotational constants in MHz :     0.000000  2525.003646  2525.003646

                             ****ORCA TERMINATED NORMALLY****
TOTAL RUN TIME: 0 days 0 hours 0 minutes 20 seconds 561 msec
