                         Program Version 5.0.2 -  RELEASE  -
|  1> !uks b3lyp ma-def2-tzvpp tightscf
|  2>
|  3> %paras
|  4>   rHeHe = 5,10,21
|  5> end
|  6>
|  7> %scf
|  8>   maxiter 250
|  9> end
| 10>
| 11> *int 0 1
| 12> he 0 0 0 0 0 0
| 13> he 1 0 0 {rHeHe} 0 0
| 14> *
| 15>
| 16>                          ****END OF INPUT****
 Total Charge           Charge          ....    0
 Multiplicity           Mult            ....    1
 Number of Electrons    NEL             ....    4
 Basis Dimension        Dim             ....   36

ORBITAL ENERGIES
----------------
                 SPIN UP ORBITALS
  NO   OCC          E(Eh)            E(eV)
   0   1.0000      -0.657971       -17.9043
   1   1.0000      -0.657928       -17.9031
   2   0.0000       0.092855         2.5267
   3   0.0000       0.119640         3.2556
   4   0.0000       0.373937        10.1753
   5   0.0000       0.374426        10.1887
   6   0.0000       0.374426        10.1887

                 SPIN DOWN ORBITALS
  NO   OCC          E(Eh)            E(eV)
   0   1.0000      -0.657971       -17.9043
   1   1.0000      -0.657928       -17.9031
   2   0.0000       0.092855         2.5267
   3   0.0000       0.119640         3.2556
   4   0.0000       0.373937        10.1753
   5   0.0000       0.374426        10.1887
   6   0.0000       0.374426        10.1887

MULLIKEN ATOMIC CHARGES AND SPIN POPULATIONS
--------------------------------------------
   0 He:   -0.000000    0.000000
   1 He:    0.000000    0.000000
Sum of atomic charges         :    0.0000000

LOEWDIN ATOMIC CHARGES AND SPIN POPULATIONS
-------------------------------------------
   0 He:    0.000000    0.000000
   1 He:   -0.000000    0.000000

FINAL SINGLE POINT ENERGY        -5.812882169219
FINAL SINGLE POINT ENERGY        -5.812887187885
FINAL SINGLE POINT ENERGY        -5.812908304624
FINAL SINGLE POINT ENERGY        -5.812918452798
FINAL SINGLE POINT ENERGY        -5.812912735238
FINAL SINGLE POINT ENERGY        -5.812904021948
FINAL SINGLE POINT ENERGY        -5.812897348585
FINAL SINGLE POINT ENERGY        -5.812893302599
FINAL SINGLE POINT ENERGY        -5.812891851465
FINAL SINGLE POINT ENERGY        -5.812892551039
FINAL SINGLE POINT ENERGY        -5.812894603909
FINAL SINGLE POINT ENERGY        -5.812895504671
FINAL SINGLE POINT ENERGY        -5.812896226861
FINAL SINGLE POINT ENERGY        -5.812896881601
FINAL SINGLE POINT ENERGY        -5.812897476335
FINAL SINGLE POINT ENERGY        -5.812897756014
FINAL SINGLE POINT ENERGY        -5.812897989646
FINAL SINGLE POINT ENERGY        -5.812898276510
FINAL SINGLE POINT ENERGY        -5.812898525746

CARTESIAN COORDINATES (ANGSTROEM)
---------------------------------
  He     0.000000    0.000000    0.000000
  He    10.000000    0.000000    0.000000

FINAL SINGLE POINT ENERGY        -5.812898680514

DIPOLE MOMENT
-------------
                                X             Y             Z
Electronic contribution:      0.00000       0.00000       0.00000
Nuclear contribution   :      0.00000       0.00000       0.00000
                        -----------------------------------------
Total Dipole Moment    :      0.00000       0.00000       0.00000
                        -----------------------------------------
Magnitude (a.u.)       :      0.00000
Magnitude (Debye)      :      0.00000

Rotational constants in cm-1:     0.000000     0.084225     0.084225
Rotational constants in MHz :     0.000000  2525.003646  2525.003646

                             ****ORCA TERMINATED NORMALLY****
TOTAL RUN TIME: 0 days 0 hours 0 minutes 19 seconds 749 msec
