                         Program Version 5.0.2 -  RELEASE  -
|  1> !uks b3lyp ma-def2-tzvpp tightscf
|  2>
|  3> %scf
|  4>   maxiter 250
|  5> end
|  6>
|  7> *xyz 0 1
|  8> he 0 0 0
|  9> *
| 10>
| 11>                          ****END OF INPUT****

CARTESIAN COORDINATES (ANGSTROEM)
---------------------------------
  He     0.000000    0.000000    0.000000

 Total Charge           Charge          ....    0
 Multiplicity           Mult            ....    1
 Number of Electrons    NEL             ....    2
 Basis Dimension        Dim             ....   18

ORBITAL ENERGIES
----------------
                 SPIN UP ORBITALS
  NO   OCC          E(Eh)            E(eV)
   0   1.0000      -0.657959       -17.9040
   1   0.0000       0.105563         2.8725
   2   0.0000       0.382958        10.4208
   3   0.0000       0.383036        10.4230
   4   0.0000       0.383036        10.4230
   5   0.0000       0.960791        26.1444

                 SPIN DOWN ORBITALS
  NO   OCC          E(Eh)            E(eV)
   0   1.0000      -0.657959       -17.9040
   1   0.0000       0.105563         2.8725
   2   0.0000       0.382958        10.4208
   3   0.0000       0.383036        10.4230
   4   0.0000       0.383036        10.4230
   5   0.0000       0.960791        26.1444

MULLIKEN ATOMIC CHARGES AND SPIN POPULATIONS
--------------------------------------------
   0 He:   -0.000000    0.000000
Sum of atomic charges         :   -0.0000000

LOEWDIN ATOMIC CHARGES AND SPIN POPULATIONS
-------------------------------------------
   0 He:   -0.000000    0.000000

FINAL SINGLE POINT ENERGY        -2.906449639799

DIPOLE MOMENT
-------------
                                X             Y             Z
Electronic contribution:     -0.00000      -0.00000       0.00000
Nuclear contribution   :      0.00000       0.00000       0.00000
                        -----------------------------------------
Total Dipole Moment    :     -0.00000      -0.00000       0.00000
                        -----------------------------------------
Magnitude (a.u.)       :      0.00000
Magnitude (Debye)      :      0.00000

Rotational constants in cm-1:     0.000000     0.000000     0.000000
Rotational constants in MHz :     0.000000     0.000000     0.000000

                             ****ORCA TERMINATED NORMALLY****
TOTAL RUN TIME: 0 days 0 hours 0 minutes 1 seconds 102 msec
