                         Program Version 5.0.2 -  RELEASE  -
|  1> !uhf ccsd(t) ma-def2-tzvpp tightscf
|  2>
|  3> %scf
|  4>   maxiter 250
|  5> end
|  6>
|  7> *xyz 0 1
|  8> he 0 0 0
|  9> *
| 10>
| 11>                          ****END OF INPUT****

CARTESIAN COORDINATES (ANGSTROEM)
---------------------------------
  He     0.000000    0.000000    0.000000

 Total Charge           Charge          ....    0
 Multiplicity           Mult            ....    1
 Number of Electrons    NEL             ....    2
 Basis Dimension        Dim             ....   18

ORBITAL ENERGIES
----------------
                 SPIN UP ORBITALS
  NO   OCC          E(Eh)            E(eV)
   0   1.0000      -0.917609       -24.9694
   1   0.0000       0.177422         4.8279
   2   0.0000       0.518584        14.1114
   3   0.0000       0.518584        14.1114
   4   0.0000       0.518584        14.1114
   5   0.0000       1.154610        31.4185

                 SPIN DOWN ORBITALS
  NO   OCC          E(Eh)            E(eV)
   0   1.0000      -0.917609       -24.9694
   1   0.0000       0.177422         4.8279
   2   0.0000       0.518584        14.1114
   3   0.0000       0.518584        14.1114
   4   0.0000       0.518584        14.1114
   5   0.0000       1.154610        31.4185

E(0)                                       ...     -2.859990677
E(0)                                       ...     -2.859990677
E(CORR)                                    ...     -0.039229194
E(TOT)                                     ...     -2.899219870
E(CCSD(T))                                 ...     -2.899219870

MULLIKEN ATOMIC CHARGES AND SPIN DENSITIES
------------------------------------------
   0 He:    0.000000    0.000000
Sum of atomic charges       :    0.0000000

LOEWDIN ATOMIC CHARGES AND SPIN DENSITIES
-----------------------------------------
   0 He:    0.000000    0.000000

FINAL SINGLE POINT ENERGY        -2.899219870215

DIPOLE MOMENT
-------------
                                X             Y             Z
Electronic contribution:      0.00000       0.00000      -0.00000
Nuclear contribution   :      0.00000       0.00000       0.00000
                        -----------------------------------------
Total Dipole Moment    :      0.00000       0.00000      -0.00000
                        -----------------------------------------
Magnitude (a.u.)       :      0.00000
Magnitude (Debye)      :      0.00000

Rotational constants in cm-1:     0.000000     0.000000     0.000000
Rotational constants in MHz :     0.000000     0.000000     0.000000

                             ****ORCA TERMINATED NORMALLY****
TOTAL RUN TIME: 0 days 0 hours 0 minutes 1 seconds 740 msec
