                         Program Version 5.0.2 -  RELEASE  -
|  1> !qm/xtb rks wb97x d4 6-31g* tightscf
|  2> !rijcosx autoaux
|  3> !normalprint
|  4> !pal8
|  5>
|  6> %scf
|  7>   maxiter 500
|  8> end
|  9>
| 10> %qmmm
| 11>   qmatoms { 0:11 } end
| 12> end
| 13>
| 14> %tddft
| 15>   nroots 20
| 16> end
| 17>
| 18> *xyzfile 0 1 C6H6--12C6H12_0_1_bp86_xtb_6-31gpol_RC-1-layer.optH.xyz
| 19>
| 20> %geom
| 21>   fragments
| 22>     1 { 0:11 } end
| 23>     2 { 12:155 } end
| 24>   end
| 25> end
| 26>
| 27>                          ****END OF INPUT****
FINAL SINGLE POINT ENERGY (L-QM2)     -206.525318012660
FINAL SINGLE POINT ENERGY (S-QM2)      -15.878394613050

CARTESIAN COORDINATES (ANGSTROEM)
---------------------------------
  C      3.258314    3.406029    6.822806
  C      2.683797    4.306721    5.925964
  C      3.133319    5.626986    5.884872
  H      2.913263    2.365816    6.855213
  H      1.874896    3.989900    5.258481
  H      2.684789    6.330552    5.175403
  C      4.150986    6.048071    6.738994
  C      4.725503    5.147379    7.635836
  C      4.275981    3.827114    7.676928
  H      4.496037    7.088285    6.706587
  H      5.534403    5.464199    8.303319
  H      4.724510    3.123549    8.386396

 Total Charge           Charge          ....    0
 Multiplicity           Mult            ....    1
 Number of Electrons    NEL             ....   42
 Basis Dimension        Dim             ....   96

ORBITAL ENERGIES
----------------

  NO   OCC          E(Eh)            E(eV)
   0   2.0000     -10.267975      -279.4058
   1   2.0000     -10.267880      -279.4032
   2   2.0000     -10.267674      -279.3976
   3   2.0000     -10.267387      -279.3898
   4   2.0000     -10.267188      -279.3844
   5   2.0000     -10.267084      -279.3816
   6   2.0000      -0.981981       -26.7211
   7   2.0000      -0.869935       -23.6721
   8   2.0000      -0.869720       -23.6663
   9   2.0000      -0.717669       -19.5288
  10   2.0000      -0.716916       -19.5083
  11   2.0000      -0.633948       -17.2506
  12   2.0000      -0.567154       -15.4330
  13   2.0000      -0.548066       -14.9136
  14   2.0000      -0.523294       -14.2395
  15   2.0000      -0.522660       -14.2223
  16   2.0000      -0.476917       -12.9776
  17   2.0000      -0.439125       -11.9492
  18   2.0000      -0.437941       -11.9170
  19   2.0000      -0.339966        -9.2509
  20   2.0000      -0.339353        -9.2343
  21   0.0000       0.086262         2.3473
  22   0.0000       0.086647         2.3578
  23   0.0000       0.183944         5.0054
  24   0.0000       0.242924         6.6103
  25   0.0000       0.243936         6.6378

MULLIKEN ATOMIC CHARGES
-----------------------
   0 C :   -0.166695
   1 C :   -0.164528
   2 C :   -0.164206
   3 H :    0.165115
   4 H :    0.167555
   5 H :    0.162759
   6 C :   -0.166697
   7 C :   -0.164528
   8 C :   -0.164205
   9 H :    0.165117
  10 H :    0.167556
  11 H :    0.162758
Sum of atomic charges:    0.0000000

LOEWDIN ATOMIC CHARGES
----------------------
   0 C :   -0.138594
   1 C :   -0.137146
   2 C :   -0.137360
   3 H :    0.137522
   4 H :    0.138743
   5 H :    0.136835
   6 C :   -0.138594
   7 C :   -0.137146
   8 C :   -0.137360
   9 H :    0.137523
  10 H :    0.138743
  11 H :    0.136835

  Mayer bond orders larger than 0.100000
B(  0-C ,  1-C ) :   1.4557 B(  0-C ,  3-H ) :   0.9346 B(  0-C ,  8-C ) :   1.4583
B(  1-C ,  2-C ) :   1.4595 B(  1-C ,  4-H ) :   0.9340 B(  2-C ,  5-H ) :   0.9355
B(  2-C ,  6-C ) :   1.4583 B(  6-C ,  7-C ) :   1.4557 B(  6-C ,  9-H ) :   0.9346
B(  7-C ,  8-C ) :   1.4595 B(  7-C , 10-H ) :   0.9340 B(  8-C , 11-H ) :   0.9355

-----------------------------------------------------------------------------
         ABSORPTION SPECTRUM VIA TRANSITION ELECTRIC DIPOLE MOMENTS
-----------------------------------------------------------------------------
State   Energy    Wavelength  fosc         T2        TX        TY        TZ
        (cm-1)      (nm)                 (au**2)    (au)      (au)      (au)
-----------------------------------------------------------------------------
   1   46435.3    215.4   0.000008830   0.00006   0.00508  -0.00185   0.00578
   2   54389.4    183.9   0.000033945   0.00021  -0.00642  -0.00970  -0.00837
   3   66188.9    151.1   0.933528577   4.64321   0.28720  -1.89662   0.98160
   4   66231.2    151.0   0.936197311   4.65351   1.54946   0.87229   1.22139
   5   66466.8    150.5   0.000481774   0.00239  -0.03722  -0.02274  -0.02199
   6   67196.9    148.8   0.010614156   0.05200   0.09249  -0.19080  -0.08391
   7   67456.5    148.2   0.031571503   0.15408   0.29950   0.00162   0.25372
   8   67502.0    148.1   0.025229139   0.12304  -0.10077  -0.31170   0.12543
   9   73102.3    136.8   0.000000000   0.00000   0.00000  -0.00000   0.00000
  10   73239.3    136.5   0.000000000   0.00000   0.00000   0.00000   0.00000
  11   82445.7    121.3   0.000000000   0.00000  -0.00000   0.00000  -0.00000
  12   82497.4    121.2   0.000000000   0.00000   0.00000   0.00000  -0.00000
  13   82893.9    120.6   0.000033020   0.00013   0.00267  -0.00278  -0.01078
  14   83483.1    119.8   0.000000000   0.00000  -0.00000   0.00000  -0.00000
  15   83776.2    119.4   0.000000000   0.00000   0.00000  -0.00000   0.00000
  16   83900.8    119.2   0.000000000   0.00000   0.00000  -0.00000   0.00000
  17   86807.9    115.2   0.000212345   0.00081   0.00206   0.02743  -0.00698
  18   86870.8    115.1   0.000134248   0.00051  -0.01610  -0.00356  -0.01539
  19   86983.4    115.0   0.000000000   0.00000  -0.00000  -0.00000  -0.00000
  20   88214.8    113.4   0.000000000   0.00000  -0.00000  -0.00000   0.00000

Dispersion correction           -0.001354136
FINAL SINGLE POINT ENERGY      -231.967074955602
FINAL SINGLE POINT ENERGY (QM/QM2)     -422.613998355212

DIPOLE MOMENT
-------------
                                X             Y             Z
Electronic contribution:      0.00000      -0.00000       0.00000
Nuclear contribution   :     -0.00000       0.00000      -0.00000
                        -----------------------------------------
Total Dipole Moment    :      0.00000       0.00000       0.00000
                        -----------------------------------------
Magnitude (a.u.)       :      0.00000
Magnitude (Debye)      :      0.00000

Rotational constants in cm-1:     0.189991     0.189523     0.094879
Rotational constants in MHz :  5695.780402  5681.756810  2844.394283

                             ****ORCA TERMINATED NORMALLY****
TOTAL RUN TIME: 0 days 0 hours 0 minutes 48 seconds 744 msec
