                         Program Version 4.2.0 -  RELEASE  -
|  1> !uks bp86 6-31g* tightscf opt
|  2> !autoaux
|  3> !normalprint
|  4> !pal8
|  5>
|  6> %scf
|  7>   maxiter 500
|  8> end
|  9>
| 10> %tddft
| 11>   nroots 10
| 12>   iroot 5
| 13> end
| 14>
| 15> *xyzfile 0 1 benzene_0_1_bp86_6-31gpol.opt.xyz
| 16>
| 17>                          ****END OF INPUT****
 Total Charge           Charge          ....    0
 Multiplicity           Mult            ....    1
 Number of Electrons    NEL             ....   42
FINAL SINGLE POINT ENERGY      -232.039864601412
FINAL SINGLE POINT ENERGY      -232.044769493280
FINAL SINGLE POINT ENERGY      -232.044998095824
                    ***********************HURRAY********************

CARTESIAN COORDINATES (ANGSTROEM)
---------------------------------
  C      1.423723   -0.228462    0.005652
  C      0.521402   -1.345298   -0.009075
  C     -0.897564   -1.122790   -0.014168
  C     -1.414165    0.217473   -0.004650
  C     -0.511846    1.334305    0.010089
  C      0.907124    1.111798    0.015157
  H      2.504241   -0.398629    0.009723
  H      0.914777   -2.365583   -0.016528
  H     -1.584211   -1.973613   -0.025418
  H     -2.494686    0.387615   -0.008718
  H     -0.905207    2.354594    0.017591
  H      1.593762    1.962629    0.026355

 Multiplicity           Mult            ....    1
 Number of Electrons    NEL             ....   42
 Basis Dimension        Dim             ....   96

ORBITAL ENERGIES
----------------
                 SPIN UP ORBITALS
  NO   OCC          E(Eh)            E(eV)
   0   1.0000      -9.918706      -269.9017
   1   1.0000      -9.918699      -269.9015
   2   1.0000      -9.918564      -269.8978
   3   1.0000      -9.918482      -269.8956
   4   1.0000      -9.918401      -269.8934
   5   1.0000      -9.918378      -269.8928
   6   1.0000      -0.754227       -20.5236
   7   1.0000      -0.662581       -18.0297
   8   1.0000      -0.662484       -18.0271
   9   1.0000      -0.535735       -14.5781
  10   1.0000      -0.535729       -14.5779
  11   1.0000      -0.459218       -12.4960
  12   1.0000      -0.416756       -11.3405
  13   1.0000      -0.381476       -10.3805
  14   1.0000      -0.368193       -10.0191
  15   1.0000      -0.368049       -10.0151
  16   1.0000      -0.310569        -8.4510
  17   1.0000      -0.299156        -8.1404
  18   1.0000      -0.299100        -8.1389
  19   1.0000      -0.217154        -5.9091
  20   1.0000      -0.217028        -5.9056
  21   0.0000      -0.036603        -0.9960
  22   0.0000      -0.036313        -0.9881
  23   0.0000       0.064709         1.7608
  24   0.0000       0.098136         2.6704
  25   0.0000       0.116624         3.1735

                 SPIN DOWN ORBITALS
  NO   OCC          E(Eh)            E(eV)
   0   1.0000      -9.918706      -269.9017
   1   1.0000      -9.918699      -269.9015
   2   1.0000      -9.918564      -269.8978
   3   1.0000      -9.918482      -269.8956
   4   1.0000      -9.918401      -269.8934
   5   1.0000      -9.918378      -269.8928
   6   1.0000      -0.754227       -20.5236
   7   1.0000      -0.662581       -18.0297
   8   1.0000      -0.662484       -18.0271
   9   1.0000      -0.535735       -14.5781
  10   1.0000      -0.535729       -14.5779
  11   1.0000      -0.459218       -12.4960
  12   1.0000      -0.416756       -11.3405
  13   1.0000      -0.381476       -10.3805
  14   1.0000      -0.368193       -10.0191
  15   1.0000      -0.368049       -10.0151
  16   1.0000      -0.310569        -8.4510
  17   1.0000      -0.299156        -8.1404
  18   1.0000      -0.299100        -8.1389
  19   1.0000      -0.217154        -5.9091
  20   1.0000      -0.217028        -5.9056
  21   0.0000      -0.036603        -0.9960
  22   0.0000      -0.036313        -0.9881
  23   0.0000       0.064709         1.7608
  24   0.0000       0.098136         2.6704
  25   0.0000       0.116624         3.1735

MULLIKEN ATOMIC CHARGES AND SPIN POPULATIONS
--------------------------------------------
   0 C :   -0.145625    0.000000
   1 C :   -0.136218    0.000000
   2 C :   -0.141334    0.000000
   3 C :   -0.145625    0.000000
   4 C :   -0.136219    0.000000
   5 C :   -0.141332    0.000000
   6 H :    0.143462    0.000000
   7 H :    0.137608    0.000000
   8 H :    0.142106    0.000000
   9 H :    0.143462    0.000000
  10 H :    0.137608    0.000000
  11 H :    0.142107    0.000000
Sum of atomic charges         :   -0.0000000

LOEWDIN ATOMIC CHARGES AND SPIN POPULATIONS
-------------------------------------------
   0 C :   -0.136428    0.000000
   1 C :   -0.134140    0.000000
   2 C :   -0.135878    0.000000
   3 C :   -0.136429    0.000000
   4 C :   -0.134140    0.000000
   5 C :   -0.135878    0.000000
   6 H :    0.135930    0.000000
   7 H :    0.134505    0.000000
   8 H :    0.136011    0.000000
   9 H :    0.135930    0.000000
  10 H :    0.134505    0.000000
  11 H :    0.136011    0.000000

  Mayer bond orders larger than 0.100000
B(  0-C ,  1-C ) :   1.4448 B(  0-C ,  3-C ) :   0.1024 B(  0-C ,  5-C ) :   1.4451
B(  0-C ,  6-H ) :   0.9207 B(  1-C ,  2-C ) :   1.4447 B(  1-C ,  4-C ) :   0.1018
B(  1-C ,  7-H ) :   0.9229 B(  2-C ,  3-C ) :   1.4451 B(  2-C ,  5-C ) :   0.1015
B(  2-C ,  8-H ) :   0.9208 B(  3-C ,  4-C ) :   1.4448 B(  3-C ,  9-H ) :   0.9207
B(  4-C ,  5-C ) :   1.4447 B(  4-C , 10-H ) :   0.9229 B(  5-C , 11-H ) :   0.9208

-----------------------------------------------------------------------------
         ABSORPTION SPECTRUM VIA TRANSITION ELECTRIC DIPOLE MOMENTS
-----------------------------------------------------------------------------
State   Energy    Wavelength  fosc         T2        TX        TY        TZ
        (cm-1)      (nm)                 (au**2)    (au)      (au)      (au)
-----------------------------------------------------------------------------
   1   31204.1    320.5   0.000000000   0.00000   0.00000   0.00000   0.00000
   2   35453.3    282.1   0.000000000   0.00000  -0.00000  -0.00000  -0.00000
   3   35456.4    282.0   0.000000000   0.00000  -0.00000  -0.00000   0.00000
   4   38207.4    261.7   0.000000000   0.00000  -0.00000   0.00000   0.00000
   5   40745.7    245.4   0.000001299   0.00001   0.00174  -0.00274  -0.00002
   6   54514.2    183.4   0.000000000   0.00000  -0.00000  -0.00000   0.00000
   7   54568.1    183.3   0.000000000   0.00000  -0.00000  -0.00000   0.00000
   8   55917.3    178.8   0.000000000   0.00000  -0.00000  -0.00000  -0.00000
   9   56073.0    178.3   0.000000000   0.00000   0.00000   0.00000   0.00000
  10   56089.8    178.3   0.000000000   0.00000  -0.00000  -0.00000   0.00000

FINAL SINGLE POINT ENERGY      -232.045000664710

DIPOLE MOMENT
-------------
                                X             Y             Z
Electronic contribution:     -0.00000       0.00001      -0.00000
Nuclear contribution   :      0.00000      -0.00001       0.00000
                        -----------------------------------------
Total Dipole Moment    :     -0.00000      -0.00000       0.00000
                        -----------------------------------------
Magnitude (a.u.)       :      0.00000
Magnitude (Debye)      :      0.00001

Rotational constants in cm-1:     0.179992     0.179918     0.089978
Rotational constants in MHz :  5396.039399  5393.801243  2697.460051

                             ****ORCA TERMINATED NORMALLY****
TOTAL RUN TIME: 0 days 0 hours 1 minutes 39 seconds 429 msec
