                         Program Version 4.2.0 -  RELEASE  -
|  1> !uks wb2plyp def2-svp tightscf
|  2> !autoaux
|  3> !normalprint
|  4> !pal4
|  5>
|  6> %scf
|  7>   maxiter 500
|  8> end
|  9>
| 10> %tddft
| 11>   nroots 10
| 12> end
| 13>
| 14> *xyzfile 0 1 benzene_0_1_bp86_6-31gpol.eopt.xyz
| 15>
| 16>                          ****END OF INPUT****

CARTESIAN COORDINATES (ANGSTROEM)
---------------------------------
  C      1.423723   -0.228462    0.005652
  C      0.521402   -1.345298   -0.009075
  C     -0.897564   -1.122790   -0.014168
  C     -1.414165    0.217473   -0.004650
  C     -0.511846    1.334305    0.010089
  C      0.907124    1.111798    0.015157
  H      2.504241   -0.398629    0.009723
  H      0.914777   -2.365583   -0.016528
  H     -1.584211   -1.973613   -0.025418
  H     -2.494686    0.387615   -0.008718
  H     -0.905207    2.354594    0.017591
  H      1.593762    1.962629    0.026355

 Total Charge           Charge          ....    0
 Multiplicity           Mult            ....    1
 Number of Electrons    NEL             ....   42
 Basis Dimension        Dim             ....  114

ORBITAL ENERGIES
----------------
                 SPIN UP ORBITALS
  NO   OCC          E(Eh)            E(eV)
   0   1.0000     -10.711809      -291.4831
   1   1.0000     -10.711618      -291.4779
   2   1.0000     -10.711569      -291.4766
   3   1.0000     -10.711060      -291.4628
   4   1.0000     -10.711011      -291.4614
   5   1.0000     -10.710826      -291.4564
   6   1.0000      -1.030978       -28.0543
   7   1.0000      -0.917872       -24.9766
   8   1.0000      -0.917740       -24.9730
   9   1.0000      -0.758325       -20.6351
  10   1.0000      -0.758130       -20.6298
  11   1.0000      -0.662487       -18.0272
  12   1.0000      -0.608121       -16.5478
  13   1.0000      -0.577712       -15.7203
  14   1.0000      -0.554975       -15.1016
  15   1.0000      -0.554899       -15.0996
  16   1.0000      -0.482119       -13.1191
  17   1.0000      -0.472430       -12.8555
  18   1.0000      -0.472296       -12.8518
  19   1.0000      -0.341181        -9.2840
  20   1.0000      -0.341091        -9.2816
  21   0.0000       0.086209         2.3459
  22   0.0000       0.086327         2.3491
  23   0.0000       0.152581         4.1519
  24   0.0000       0.191994         5.2244
  25   0.0000       0.192509         5.2384

                 SPIN DOWN ORBITALS
  NO   OCC          E(Eh)            E(eV)
   0   1.0000     -10.711809      -291.4831
   1   1.0000     -10.711618      -291.4779
   2   1.0000     -10.711569      -291.4766
   3   1.0000     -10.711060      -291.4628
   4   1.0000     -10.711011      -291.4614
   5   1.0000     -10.710826      -291.4564
   6   1.0000      -1.030978       -28.0543
   7   1.0000      -0.917872       -24.9766
   8   1.0000      -0.917740       -24.9730
   9   1.0000      -0.758325       -20.6351
  10   1.0000      -0.758130       -20.6298
  11   1.0000      -0.662487       -18.0272
  12   1.0000      -0.608121       -16.5478
  13   1.0000      -0.577712       -15.7203
  14   1.0000      -0.554975       -15.1016
  15   1.0000      -0.554899       -15.0996
  16   1.0000      -0.482119       -13.1191
  17   1.0000      -0.472430       -12.8555
  18   1.0000      -0.472296       -12.8518
  19   1.0000      -0.341181        -9.2840
  20   1.0000      -0.341091        -9.2816
  21   0.0000       0.086209         2.3459
  22   0.0000       0.086327         2.3491
  23   0.0000       0.152581         4.1519
  24   0.0000       0.191994         5.2244
  25   0.0000       0.192509         5.2384

MULLIKEN ATOMIC CHARGES AND SPIN POPULATIONS
--------------------------------------------
   0 C :   -0.030386    0.000000
   1 C :   -0.030306    0.000000
   2 C :   -0.030487    0.000000
   3 C :   -0.030381    0.000000
   4 C :   -0.030303    0.000000
   5 C :   -0.030486    0.000000
   6 H :    0.030379    0.000000
   7 H :    0.030164    0.000000
   8 H :    0.030632    0.000000
   9 H :    0.030378    0.000000
  10 H :    0.030164    0.000000
  11 H :    0.030633    0.000000
Sum of atomic charges         :   -0.0000000

LOEWDIN ATOMIC CHARGES AND SPIN POPULATIONS
-------------------------------------------
   0 C :   -0.031495    0.000000
   1 C :   -0.031419    0.000000
   2 C :   -0.031600    0.000000
   3 C :   -0.031492    0.000000
   4 C :   -0.031417    0.000000
   5 C :   -0.031602    0.000000
   6 H :    0.031522    0.000000
   7 H :    0.031447    0.000000
   8 H :    0.031543    0.000000
   9 H :    0.031522    0.000000
  10 H :    0.031447    0.000000
  11 H :    0.031543    0.000000

  Mayer bond orders larger than 0.100000
B(  0-C ,  1-C ) :   1.4139 B(  0-C ,  5-C ) :   1.4130 B(  0-C ,  6-H ) :   0.9871
B(  1-C ,  2-C ) :   1.4133 B(  1-C ,  7-H ) :   0.9874 B(  2-C ,  3-C ) :   1.4130
B(  2-C ,  8-H ) :   0.9869 B(  3-C ,  4-C ) :   1.4139 B(  3-C ,  9-H ) :   0.9871
B(  4-C ,  5-C ) :   1.4133 B(  4-C , 10-H ) :   0.9874 B(  5-C , 11-H ) :   0.9869

MP2 TOTAL ENERGY:     -231.530817967 Eh

-----------------------------------------------------------------------------
         ABSORPTION SPECTRUM VIA TRANSITION ELECTRIC DIPOLE MOMENTS
-----------------------------------------------------------------------------
State   Energy    Wavelength  fosc         T2        TX        TY        TZ
        (cm-1)      (nm)                 (au**2)    (au)      (au)      (au)
-----------------------------------------------------------------------------
   1   30383.3    329.1   0.000000000   0.00000  -0.00000   0.00000   0.00000
   2   38008.8    263.1   0.000000000   0.00000   0.00000   0.00000   0.00000
   3   38013.3    263.1   0.000000000   0.00000  -0.00000   0.00000   0.00000
   4   43323.8    230.8   0.000000000   0.00000  -0.00000   0.00000   0.00000
   5   42598.3    234.8   0.000000037   0.00000  -0.00045  -0.00028  -0.00001
   6   51643.7    193.6   0.000002199   0.00001  -0.00128  -0.00352  -0.00002
   7   59409.2    168.3   0.000000000   0.00000  -0.00000   0.00000   0.00000
   8   59441.9    168.2   0.000000000   0.00000  -0.00000   0.00000   0.00000
   9   61757.4    161.9   1.013467940   5.40253  -2.32430   0.00215  -0.01160
  10   65761.4    152.1   0.000000000   0.00000   0.00000  -0.00000  -0.00000

FINAL SINGLE POINT ENERGY      -231.153562453775

DIPOLE MOMENT
-------------
                                X             Y             Z
Electronic contribution:     -0.00001       0.00001      -0.00000
Nuclear contribution   :      0.00000      -0.00001       0.00000
                        -----------------------------------------
Total Dipole Moment    :     -0.00001       0.00000       0.00000
                        -----------------------------------------
Magnitude (a.u.)       :      0.00001
Magnitude (Debye)      :      0.00002

Rotational constants in cm-1:     0.179992     0.179918     0.089978
Rotational constants in MHz :  5396.039399  5393.801243  2697.460051

                             ****ORCA TERMINATED NORMALLY****
TOTAL RUN TIME: 0 days 0 hours 3 minutes 14 seconds 210 msec
