                         Program Version 4.2.0 -  RELEASE  -
|  1> !uhf def2-qzvpp tightscf fci
|  2> !normalprint
|  3>
|  4> %paras
|  5>   rHH [19.952623149688797 16.43574799372698 13.538761800225439 11.152402139117903 9.1866653175426 7.567411809920191 6.233570019315557 5.134832907437553 4.229760619613384 3.4842175435383975 2.870084854071569 2.3641999865500756 1.9474830399087562 1.6042171611153242 1.32145576997553 1.088534267260644 0.8966678097917788 0.7386199822079362 0.6084298690766428 0.5011872336272722]
|  6> end
|  7>
|  8> %scf
|  9>   maxiter 500
| 10>   brokensym 1,1
| 11> end
| 12>
| 13> *int 0 1
| 14> H 0 0 0 0 0 0
| 15> H 1 0 0 {rHH} 0 0
| 16> *
| 17>
| 18>                          ****END OF INPUT****
 Total Charge           Charge          ....    0
 Multiplicity           Mult            ....    1
 Number of Electrons    NEL             ....    2
 Basis Dimension        Dim             ....   60

ORBITAL ENERGIES
----------------
                 SPIN UP ORBITALS
  NO   OCC          E(Eh)            E(eV)
   0   1.0000      -0.499983       -13.6052
   1   0.0000       0.042594         1.1591
   2   0.0000       0.218667         5.9502
   3   0.0000       0.329981         8.9793
   4   0.0000       0.531929        14.4745
   5   0.0000       0.531929        14.4745

                 SPIN DOWN ORBITALS
  NO   OCC          E(Eh)            E(eV)
   0   1.0000      -0.499983       -13.6052
   1   0.0000       0.042594         1.1591
   2   0.0000       0.218667         5.9502
   3   0.0000       0.329981         8.9793
   4   0.0000       0.531929        14.4745
   5   0.0000       0.531929        14.4745

MULLIKEN ATOMIC CHARGES AND SPIN POPULATIONS
--------------------------------------------
   0 H :    0.000000    1.000000
   1 H :    0.000000   -1.000000
Sum of atomic charges         :    0.0000000

LOEWDIN ATOMIC CHARGES AND SPIN POPULATIONS
-------------------------------------------
   0 H :    0.000000    1.000000
   1 H :    0.000000   -1.000000

 FINAL SINGLE POINT ENERGY Root 0 	= -0.99996659681761
 FINAL SINGLE POINT ENERGY Root 0 	= -0.99996659681761
FINAL SINGLE POINT ENERGY        -0.999966596818
 FINAL SINGLE POINT ENERGY Root 0 	= -0.99996659956643
 FINAL SINGLE POINT ENERGY Root 0 	= -0.99996659956643
FINAL SINGLE POINT ENERGY        -0.999966599566
 FINAL SINGLE POINT ENERGY Root 0 	= -0.99996660838032
 FINAL SINGLE POINT ENERGY Root 0 	= -0.99996660838032
FINAL SINGLE POINT ENERGY        -0.999966608380
 FINAL SINGLE POINT ENERGY Root 0 	= -0.99996663666477
FINAL SINGLE POINT ENERGY        -1.162277688446
 FINAL SINGLE POINT ENERGY Root 0 	= -1.17386310919565
 FINAL SINGLE POINT ENERGY Root 0 	= -1.17386310919565
FINAL SINGLE POINT ENERGY        -1.173863109196
 FINAL SINGLE POINT ENERGY Root 0 	= -1.15789532856870
 FINAL SINGLE POINT ENERGY Root 0 	= -1.15789532856870
FINAL SINGLE POINT ENERGY        -1.157895328569

CARTESIAN COORDINATES (ANGSTROEM)
---------------------------------
  H      0.000000    0.000000    0.000000
  H      0.501187    0.000000    0.000000

 FINAL SINGLE POINT ENERGY Root 0 	= -1.10442062278938
 FINAL SINGLE POINT ENERGY Root 0 	= -1.10442062278938
FINAL SINGLE POINT ENERGY        -1.104420622789

DIPOLE MOMENT
-------------
                                X             Y             Z
Electronic contribution:     -0.00000       0.00000       0.00000
Nuclear contribution   :      0.00000       0.00000       0.00000
                        -----------------------------------------
Total Dipole Moment    :     -0.00000       0.00000       0.00000
                        -----------------------------------------
Magnitude (a.u.)       :      0.00000
Magnitude (Debye)      :      0.00000

Rotational constants in cm-1:     0.000000   133.157724   133.157724
Rotational constants in MHz :     0.000000 3991968.149099 3991968.149099

                             ****ORCA TERMINATED NORMALLY****
TOTAL RUN TIME: 0 days 0 hours 38 minutes 51 seconds 989 msec
