                         Program Version 4.2.0 -  RELEASE  -
|  1> !uks b3lyp def2-qzvpp tightscf
|  2> !normalprint
|  3>
|  4> %paras
|  5>   rHH [19.952623149688797 16.43574799372698 13.538761800225439 11.152402139117903 9.1866653175426 7.567411809920191 6.233570019315557 5.134832907437553 4.229760619613384 3.4842175435383975 2.870084854071569 2.3641999865500756 1.9474830399087562 1.6042171611153242 1.32145576997553 1.088534267260644 0.8966678097917788 0.7386199822079362 0.6084298690766428 0.5011872336272722]
|  6> end
|  7>
|  8> %scf
|  9>   maxiter 500
| 10> end
| 11>
| 12> *int 0 3
| 13> H 0 0 0 0 0 0
| 14> H 1 0 0 {rHH} 0 0
| 15> *
| 16>
| 17>                          ****END OF INPUT****
 Total Charge           Charge          ....    0
 Multiplicity           Mult            ....    3
 Number of Electrons    NEL             ....    2
 Basis Dimension        Dim             ....   60

ORBITAL ENERGIES
----------------
                 SPIN UP ORBITALS
  NO   OCC          E(Eh)            E(eV)
   0   1.0000      -0.318921        -8.6783
   1   1.0000      -0.318921        -8.6783
   2   0.0000       0.147343         4.0094
   3   0.0000       0.147343         4.0094
   4   0.0000       0.397120        10.8062
   5   0.0000       0.397120        10.8062
   6   0.0000       0.397120        10.8062

                 SPIN DOWN ORBITALS
  NO   OCC          E(Eh)            E(eV)

MULLIKEN ATOMIC CHARGES AND SPIN POPULATIONS
--------------------------------------------
   0 H :    0.000000    1.000000
   1 H :    0.000000    1.000000
Sum of atomic charges         :    0.0000000

LOEWDIN ATOMIC CHARGES AND SPIN POPULATIONS
-------------------------------------------
   0 H :    0.000000    1.000000
   1 H :    0.000000    1.000000

FINAL SINGLE POINT ENERGY        -0.998035535159
FINAL SINGLE POINT ENERGY        -0.998035455357
FINAL SINGLE POINT ENERGY        -0.998035165192
FINAL SINGLE POINT ENERGY        -0.998031118102
FINAL SINGLE POINT ENERGY        -0.998032198138
FINAL SINGLE POINT ENERGY        -0.998037434293
FINAL SINGLE POINT ENERGY        -0.998033111662
FINAL SINGLE POINT ENERGY        -0.998012938929
FINAL SINGLE POINT ENERGY        -0.997940116534
FINAL SINGLE POINT ENERGY        -0.997669523082
FINAL SINGLE POINT ENERGY        -0.996676134985
FINAL SINGLE POINT ENERGY        -0.993520044370
FINAL SINGLE POINT ENERGY        -0.985512250874
FINAL SINGLE POINT ENERGY        -0.969185747361
FINAL SINGLE POINT ENERGY        -0.941666762096
FINAL SINGLE POINT ENERGY        -0.901701517170
FINAL SINGLE POINT ENERGY        -0.849271243808
FINAL SINGLE POINT ENERGY        -0.783285746742
FINAL SINGLE POINT ENERGY        -0.698888295912

CARTESIAN COORDINATES (ANGSTROEM)
---------------------------------
  H      0.000000    0.000000    0.000000
  H      0.501187    0.000000    0.000000

FINAL SINGLE POINT ENERGY        -0.586825489045

DIPOLE MOMENT
-------------
                                X             Y             Z
Electronic contribution:     -0.00000       0.00000      -0.00000
Nuclear contribution   :      0.00000       0.00000       0.00000
                        -----------------------------------------
Total Dipole Moment    :     -0.00000       0.00000      -0.00000
                        -----------------------------------------
Magnitude (a.u.)       :      0.00000
Magnitude (Debye)      :      0.00000

Rotational constants in cm-1:     0.000000   133.157724   133.157724
Rotational constants in MHz :     0.000000 3991968.149099 3991968.149099

                             ****ORCA TERMINATED NORMALLY****
TOTAL RUN TIME: 0 days 0 hours 0 minutes 34 seconds 738 msec
