                         Program Version 5.0.2 -  RELEASE  -
|  1> !rks bp86 6-31g* tightscf opt
|  2> !normalprint
|  3> !pal8
|  4>
|  5> %scf
|  6>   maxiter 500
|  7> end
|  8>
|  9> *xyzfile 0 1 tBu3CCl.xyz
| 10>
| 11>                          ****END OF INPUT****
 Total Charge           Charge          ....    0
 Multiplicity           Mult            ....    1
 Number of Electrons    NEL             ....  122
FINAL SINGLE POINT ENERGY      -971.773889665749
FINAL SINGLE POINT ENERGY      -971.778694287461
FINAL SINGLE POINT ENERGY      -971.780653675582
FINAL SINGLE POINT ENERGY      -971.779768531315
FINAL SINGLE POINT ENERGY      -971.781388021910
FINAL SINGLE POINT ENERGY      -971.777809652321
FINAL SINGLE POINT ENERGY      -971.781572310683
FINAL SINGLE POINT ENERGY      -971.776651662603
FINAL SINGLE POINT ENERGY      -971.781784281687
FINAL SINGLE POINT ENERGY      -971.780759537038
FINAL SINGLE POINT ENERGY      -971.781910574562
FINAL SINGLE POINT ENERGY      -971.781484609152
FINAL SINGLE POINT ENERGY      -971.781946868363
FINAL SINGLE POINT ENERGY      -971.781510581795
FINAL SINGLE POINT ENERGY      -971.782019849238
FINAL SINGLE POINT ENERGY      -971.782036266863
FINAL SINGLE POINT ENERGY      -971.782065596340
FINAL SINGLE POINT ENERGY      -971.782084483552
FINAL SINGLE POINT ENERGY      -971.782087433969
                    ***********************HURRAY********************

CARTESIAN COORDINATES (ANGSTROEM)
---------------------------------
  C     -1.721074   -0.032599   -0.044675
  C     -0.121143   -0.397950    0.027903
  Cl    -2.571068   -1.526174    0.749390
  C     -2.335438    0.012373   -1.569485
  C     -2.168750    1.232495    0.901523
  C     -2.144919    0.933504    2.436039
  C     -3.642647    1.686032    0.694174
  C     -1.291453    2.498458    0.677212
  C      0.216396   -1.887042   -0.307524
  C      0.502286   -0.249044    1.445787
  C      0.745268    0.487231   -0.915477
  C     -1.762027   -1.083598   -2.513929
  C     -2.085354    1.373026   -2.282394
  C     -3.870736   -0.268109   -1.658516
  H     -0.254058    2.372499    1.021035
  H     -1.723651    3.324147    1.271119
  H     -1.267197    2.834199   -0.369404
  H     -4.347821    0.860786    0.881552
  H     -3.849478    2.122726   -0.293315
  H     -3.859430    2.472953    1.438471
  H     -2.897480    0.177825    2.706723
  H     -2.411446    1.869531    2.959415
  H     -1.180637    0.609110    2.836756
  H     -0.692989   -0.972390   -2.744578
  H     -2.300591   -1.014781   -3.476048
  H     -1.943185   -2.094382   -2.115301
  H      0.570307    0.283707   -1.982125
  H      1.808450    0.258982   -0.719044
  H      0.611664    1.565388   -0.746175
  H     -0.016012   -0.880214    2.184951
  H      0.544661    0.784972    1.816964
  H      1.545950   -0.606961    1.390044
  H     -0.174417   -2.566211    0.465089
  H      1.317223   -1.984593   -0.309364
  H     -0.137414   -2.243892   -1.278718
  H     -1.026556    1.667714   -2.302652
  H     -2.663692    2.201822   -1.847287
  H     -2.414483    1.275510   -3.332773
  H     -4.106021   -1.299549   -1.356327
  H     -4.166138   -0.155902   -2.717377
  H     -4.504881    0.407210   -1.077668

 Multiplicity           Mult            ....    1
 Number of Electrons    NEL             ....  122
 Basis Dimension        Dim             ....  254

ORBITAL ENERGIES
----------------

  NO   OCC          E(Eh)            E(eV)
   0   2.0000    -100.689347     -2739.8964
   1   2.0000      -9.989949      -271.8403
   2   2.0000      -9.939825      -270.4764
   3   2.0000      -9.939775      -270.4750
   4   2.0000      -9.939643      -270.4714
   5   2.0000      -9.897726      -269.3308
   6   2.0000      -9.897623      -269.3280
   7   2.0000      -9.897600      -269.3274
   8   2.0000      -9.893046      -269.2035
   9   2.0000      -9.892954      -269.2010
  10   2.0000      -9.892800      -269.1968
  11   2.0000      -9.886026      -269.0124
  12   2.0000      -9.885938      -269.0100
  13   2.0000      -9.885902      -269.0091
  14   2.0000      -9.151785      -249.0327
  15   2.0000      -6.976201      -189.8321
  16   2.0000      -6.965869      -189.5509
  17   2.0000      -6.965860      -189.5507
  18   2.0000      -0.782650       -21.2970
  19   2.0000      -0.725741       -19.7484
  20   2.0000      -0.725671       -19.7465
  21   2.0000      -0.716066       -19.4851
  22   2.0000      -0.626695       -17.0532
  23   2.0000      -0.617554       -16.8045
  24   2.0000      -0.617476       -16.8024
  25   2.0000      -0.609824       -16.5942
  26   2.0000      -0.609672       -16.5900
  27   2.0000      -0.596076       -16.2201
  28   2.0000      -0.593711       -16.1557
  29   2.0000      -0.497065       -13.5258
  30   2.0000      -0.496981       -13.5235
  31   2.0000      -0.459690       -12.5088
  32   2.0000      -0.418715       -11.3938
  33   2.0000      -0.418628       -11.3914
  34   2.0000      -0.408359       -11.1120
  35   2.0000      -0.397205       -10.8085
  36   2.0000      -0.396701       -10.7948
  37   2.0000      -0.388841       -10.5809
  38   2.0000      -0.371444       -10.1075
  39   2.0000      -0.371318       -10.1041
  40   2.0000      -0.369812       -10.0631
  41   2.0000      -0.345743        -9.4081
  42   2.0000      -0.339853        -9.2479
  43   2.0000      -0.339652        -9.2424
  44   2.0000      -0.329302        -8.9608
  45   2.0000      -0.327835        -8.9208
  46   2.0000      -0.327656        -8.9160
  47   2.0000      -0.321666        -8.7530
  48   2.0000      -0.312202        -8.4954
  49   2.0000      -0.312045        -8.4912
  50   2.0000      -0.311891        -8.4870
  51   2.0000      -0.307452        -8.3662
  52   2.0000      -0.307001        -8.3539
  53   2.0000      -0.283637        -7.7182
  54   2.0000      -0.283490        -7.7142
  55   2.0000      -0.276883        -7.5344
  56   2.0000      -0.267509        -7.2793
  57   2.0000      -0.267335        -7.2745
  58   2.0000      -0.260223        -7.0810
  59   2.0000      -0.235599        -6.4110
  60   2.0000      -0.235432        -6.4064
  61   0.0000      -0.019610        -0.5336
  62   0.0000       0.047996         1.3060
  63   0.0000       0.059754         1.6260
  64   0.0000       0.079719         2.1693
  65   0.0000       0.079879         2.1736

MULLIKEN ATOMIC CHARGES
-----------------------
   0 C :   -0.086244
   1 C :    0.110616
   2 Cl:   -0.117712
   3 C :    0.109603
   4 C :    0.109118
   5 C :   -0.484716
   6 C :   -0.494823
   7 C :   -0.497503
   8 C :   -0.485302
   9 C :   -0.495560
  10 C :   -0.498611
  11 C :   -0.495882
  12 C :   -0.497612
  13 C :   -0.484641
  14 H :    0.162875
  15 H :    0.152240
  16 H :    0.161824
  17 H :    0.176708
  18 H :    0.158020
  19 H :    0.147894
  20 H :    0.175909
  21 H :    0.141483
  22 H :    0.158350
  23 H :    0.158480
  24 H :    0.147971
  25 H :    0.176756
  26 H :    0.163375
  27 H :    0.152335
  28 H :    0.162400
  29 H :    0.176603
  30 H :    0.158255
  31 H :    0.148171
  32 H :    0.175477
  33 H :    0.141546
  34 H :    0.159207
  35 H :    0.162390
  36 H :    0.162961
  37 H :    0.152159
  38 H :    0.175886
  39 H :    0.141598
  40 H :    0.158395
Sum of atomic charges:   -0.0000000

LOEWDIN ATOMIC CHARGES
----------------------
   0 C :    0.000989
   1 C :   -0.030624
   2 Cl:   -0.082599
   3 C :   -0.030388
   4 C :   -0.030669
   5 C :   -0.375567
   6 C :   -0.369362
   7 C :   -0.373168
   8 C :   -0.375411
   9 C :   -0.369274
  10 C :   -0.373318
  11 C :   -0.369625
  12 C :   -0.373067
  13 C :   -0.375522
  14 H :    0.127472
  15 H :    0.131099
  16 H :    0.131277
  17 H :    0.137307
  18 H :    0.124055
  19 H :    0.128063
  20 H :    0.138361
  21 H :    0.124877
  22 H :    0.133281
  23 H :    0.124331
  24 H :    0.128040
  25 H :    0.137039
  26 H :    0.127654
  27 H :    0.131056
  28 H :    0.131216
  29 H :    0.137071
  30 H :    0.124093
  31 H :    0.128229
  32 H :    0.138061
  33 H :    0.124867
  34 H :    0.133614
  35 H :    0.131434
  36 H :    0.127421
  37 H :    0.131038
  38 H :    0.138348
  39 H :    0.125025
  40 H :    0.133276

  Mayer bond orders larger than 0.100000
B(  0-C ,  1-C ) :   0.9207 B(  0-C ,  2-Cl) :   0.9182 B(  0-C ,  3-C ) :   0.9198
B(  0-C ,  4-C ) :   0.9209 B(  1-C ,  8-C ) :   0.9865 B(  1-C ,  9-C ) :   0.9894
B(  1-C , 10-C ) :   0.9922 B(  3-C , 11-C ) :   0.9898 B(  3-C , 12-C ) :   0.9919
B(  3-C , 13-C ) :   0.9875 B(  4-C ,  5-C ) :   0.9871 B(  4-C ,  6-C ) :   0.9897
B(  4-C ,  7-C ) :   0.9922 B(  5-C , 20-H ) :   0.9263 B(  5-C , 21-H ) :   0.9294
B(  5-C , 22-H ) :   0.9181 B(  6-C , 17-H ) :   0.9212 B(  6-C , 18-H ) :   0.9139
B(  6-C , 19-H ) :   0.9262 B(  7-C , 14-H ) :   0.9154 B(  7-C , 15-H ) :   0.9289
B(  7-C , 16-H ) :   0.9191 B(  8-C , 32-H ) :   0.9269 B(  8-C , 33-H ) :   0.9295
B(  8-C , 34-H ) :   0.9177 B(  9-C , 29-H ) :   0.9210 B(  9-C , 30-H ) :   0.9138
B(  9-C , 31-H ) :   0.9260 B( 10-C , 26-H ) :   0.9153 B( 10-C , 27-H ) :   0.9287
B( 10-C , 28-H ) :   0.9187 B( 11-C , 23-H ) :   0.9137 B( 11-C , 24-H ) :   0.9261
B( 11-C , 25-H ) :   0.9206 B( 12-C , 35-H ) :   0.9187 B( 12-C , 36-H ) :   0.9158
B( 12-C , 37-H ) :   0.9288 B( 13-C , 38-H ) :   0.9263 B( 13-C , 39-H ) :   0.9294
B( 13-C , 40-H ) :   0.9182

FINAL SINGLE POINT ENERGY      -971.782088317426

DIPOLE MOMENT
-------------
                                X             Y             Z
Electronic contribution:     -6.28327     -11.03216       5.86883
Nuclear contribution   :      6.63217      11.63986      -6.19396
                        -----------------------------------------
Total Dipole Moment    :      0.34890       0.60769      -0.32512
                        -----------------------------------------
Magnitude (a.u.)       :      0.77248
Magnitude (Debye)      :      1.96349

Rotational constants in cm-1:     0.020971     0.020956     0.017703
Rotational constants in MHz :   628.684525   628.232051   530.736603

                             ****ORCA TERMINATED NORMALLY****
TOTAL RUN TIME: 0 days 0 hours 9 minutes 33 seconds 734 msec
