                         Program Version 5.0.2 -  RELEASE  -
|  1> !qm/xtb rks ri bp86 6-31g* tightscf opt
|  2> !normalprint
|  3> !pal8
|  4>
|  5> %scf
|  6>   maxiter 500
|  7> end
|  8>
|  9> %qmmm
| 10>   qmatoms { 0 1 2 3 4 } end
| 11> end
| 12>
| 13> *xyzfile 0 1 tBu3CCl.xyz
| 14>
| 15>                          ****END OF INPUT****
FINAL SINGLE POINT ENERGY (L-QM2)      -46.119144266080
FINAL SINGLE POINT ENERGY (S-QM2)      -17.664707723840
 Total Charge           Charge          ....    0
 Multiplicity           Mult            ....    1
 Number of Electrons    NEL             ....   50
FINAL SINGLE POINT ENERGY      -618.036163131916
FINAL SINGLE POINT ENERGY (QM/QM2)     -646.490599674156
FINAL SINGLE POINT ENERGY (L-QM2)      -46.132112220640
FINAL SINGLE POINT ENERGY (S-QM2)      -17.688115946780
FINAL SINGLE POINT ENERGY      -618.053339277042
FINAL SINGLE POINT ENERGY (QM/QM2)     -646.497335550902
FINAL SINGLE POINT ENERGY (L-QM2)      -46.133381224360
FINAL SINGLE POINT ENERGY (S-QM2)      -17.685599827020
FINAL SINGLE POINT ENERGY      -618.052027551449
FINAL SINGLE POINT ENERGY (QM/QM2)     -646.500584691238
FINAL SINGLE POINT ENERGY (L-QM2)      -46.132769278880
FINAL SINGLE POINT ENERGY (S-QM2)      -17.684241123310
FINAL SINGLE POINT ENERGY      -618.052064420049
FINAL SINGLE POINT ENERGY (QM/QM2)     -646.500592575619
                    ***********************HURRAY********************
FINAL SINGLE POINT ENERGY (L-QM2)      -46.132784022040
FINAL SINGLE POINT ENERGY (S-QM2)      -17.684267546900

CARTESIAN COORDINATES (ANGSTROEM)
---------------------------------
  C     -1.709181   -0.012926   -0.054778
  C     -0.118688   -0.397351    0.001395
  Cl    -2.552268   -1.497255    0.740484
  C     -2.347592    0.031167   -1.561209
  C     -2.143416    1.238076    0.908069
  H      0.113371   -1.436981   -0.282345
  H      0.286622   -0.321737    1.022095
  H      0.520676    0.244525   -0.628563
  H     -1.953113   -0.771976   -2.197962
  H     -2.154389    0.970121   -2.102357
  H     -3.434460   -0.130475   -1.604044
  H     -2.087789    1.027760    1.988694
  H     -3.197614    1.521035    0.764654
  H     -1.555899    2.157197    0.741911

 Multiplicity           Mult            ....    1
 Number of Electrons    NEL             ....   50
 Basis Dimension        Dim             ....   92

ORBITAL ENERGIES
----------------

  NO   OCC          E(Eh)            E(eV)
   0   2.0000    -100.690851     -2739.9373
   1   2.0000     -10.003996      -272.2226
   2   2.0000      -9.910656      -269.6826
   3   2.0000      -9.910626      -269.6818
   4   2.0000      -9.909819      -269.6599
   5   2.0000      -9.154134      -249.0967
   6   2.0000      -6.978728      -189.9008
   7   2.0000      -6.968094      -189.6115
   8   2.0000      -6.968090      -189.6114
   9   2.0000      -0.763195       -20.7676
  10   2.0000      -0.666724       -18.1425
  11   2.0000      -0.623900       -16.9772
  12   2.0000      -0.623432       -16.9645
  13   2.0000      -0.500496       -13.6192
  14   2.0000      -0.396349       -10.7852
  15   2.0000      -0.385555       -10.4915
  16   2.0000      -0.385483       -10.4895
  17   2.0000      -0.351387        -9.5617
  18   2.0000      -0.351135        -9.5549
  19   2.0000      -0.325661        -8.8617
  20   2.0000      -0.308658        -8.3990
  21   2.0000      -0.308589        -8.3971
  22   2.0000      -0.303377        -8.2553
  23   2.0000      -0.242855        -6.6084
  24   2.0000      -0.242846        -6.6082
  25   0.0000      -0.019810        -0.5390
  26   0.0000       0.073426         1.9980
  27   0.0000       0.095416         2.5964
  28   0.0000       0.101648         2.7660
  29   0.0000       0.101688         2.7671

MULLIKEN ATOMIC CHARGES
-----------------------
   0 C :   -0.006796
   1 C :   -0.498913
   2 Cl:   -0.127780
   3 C :   -0.499762
   4 C :   -0.499039
   5 H :    0.188755
   6 H :    0.180692
   7 H :    0.174155
   8 H :    0.181116
   9 H :    0.174652
  10 H :    0.189262
  11 H :    0.188834
  12 H :    0.180677
  13 H :    0.174149
Sum of atomic charges:   -0.0000000

LOEWDIN ATOMIC CHARGES
----------------------
   0 C :   -0.002643
   1 C :   -0.392236
   2 Cl:   -0.102452
   3 C :   -0.392981
   4 C :   -0.392289
   5 H :    0.146323
   6 H :    0.142207
   7 H :    0.138731
   8 H :    0.142465
   9 H :    0.139018
  10 H :    0.146572
  11 H :    0.146352
  12 H :    0.142203
  13 H :    0.138731

  Mayer bond orders larger than 0.100000
B(  0-C ,  1-C ) :   0.9767 B(  0-C ,  2-Cl) :   0.9325 B(  0-C ,  3-C ) :   0.9772
B(  0-C ,  4-C ) :   0.9767 B(  1-C ,  5-H ) :   0.9322 B(  1-C ,  6-H ) :   0.9359
B(  1-C ,  7-H ) :   0.9322 B(  3-C ,  8-H ) :   0.9359 B(  3-C ,  9-H ) :   0.9324
B(  3-C , 10-H ) :   0.9322 B(  4-C , 11-H ) :   0.9322 B(  4-C , 12-H ) :   0.9359
B(  4-C , 13-H ) :   0.9323

FINAL SINGLE POINT ENERGY      -618.052077846763
FINAL SINGLE POINT ENERGY (QM/QM2)     -646.500594321903

DIPOLE MOMENT
-------------
                                X             Y             Z
Electronic contribution:     -4.15655      -7.31411       3.91492
Nuclear contribution   :      4.60030       8.09624      -4.33498
                        -----------------------------------------
Total Dipole Moment    :      0.44375       0.78213      -0.42006
                        -----------------------------------------
Magnitude (a.u.)       :      0.99251
Magnitude (Debye)      :      2.52277

Rotational constants in cm-1:     0.126691     0.094362     0.094345
Rotational constants in MHz :  3798.085704  2828.910259  2828.380733

                             ****ORCA TERMINATED NORMALLY****
TOTAL RUN TIME: 0 days 0 hours 4 minutes 49 seconds 363 msec
