                         Program Version 4.2.0 -  RELEASE  -
|  1> !rhf def2-qzvpp tightscf
|  2> !normalprint
|  3>
|  4> %paras
|  5> #  rHH [19.952623149688797 16.43574799372698 13.538761800225439 11.152402139117903 9.1866653175426 7.567411809920191 6.233570019315557 5.134832907437553 4.229760619613384 3.4842175435383975 2.870084854071569 2.3641999865500756 1.9474830399087562 1.6042171611153242 1.32145576997553 1.088534267260644 0.8966678097917788 0.7386199822079362 0.6084298690766428 0.5011872336272722]
|  6>   rHH [0.5011872336272722 0.6084298690766428 0.7386199822079362 0.8966678097917788 1.088534267260644 1.32145576997553 1.6042171611153242 1.9474830399087562 2.3641999865500756 2.870084854071569 3.4842175435383975 4.229760619613384 5.134832907437553 6.233570019315557 7.567411809920191 9.1866653175426 11.152402139117903 13.538761800225439 16.43574799372698 19.952623149688797]
|  7> end
|  8>
|  9> %scf
| 10>   maxiter 500
| 11> end
| 12>
| 13> %casscf
| 14>   nel 2
| 15>   norb 6
| 16> end
| 17>
| 18> *int 0 1
| 19> H 0 0 0 0 0 0
| 20> H 1 0 0 {rHH} 0 0
| 21> *
| 22>
| 23>                          ****END OF INPUT****
 Total Charge           Charge          ....    0
 Multiplicity           Mult            ....    1
 Number of Electrons    NEL             ....    2
 Basis Dimension        Dim             ....   60

ORBITAL ENERGIES
----------------

  NO   OCC          E(Eh)            E(eV)
   0   1.9753      -0.674435       -18.3523
   1   0.0098       1.021417        27.7942
   2   0.0069       1.134180        30.8626
   3   0.0040       1.276312        34.7302
   4   0.0040       1.276312        34.7302
   5   0.0000       0.199981         5.4418
   6   0.0000       0.438988        11.9455
   7   0.0000       0.778539        21.1851
   8   0.0000       0.799813        21.7640
   9   0.0000       0.799813        21.7640

MULLIKEN ATOMIC CHARGES
-----------------------
   0 H :   -0.000000
   1 H :    0.000000
Sum of atomic charges:   -0.0000000

LOEWDIN ATOMIC CHARGES
----------------------
   0 H :   -0.000000
   1 H :    0.000000

  Mayer bond orders larger than 0.100000
B(  0-H ,  1-H ) :   0.9732

FINAL SINGLE POINT ENERGY        -1.100030679992
FINAL SINGLE POINT ENERGY        -1.154211320795
FINAL SINGLE POINT ENERGY        -1.170414582048
FINAL SINGLE POINT ENERGY        -1.159160170100
FINAL SINGLE POINT ENERGY        -1.129808318438
FINAL SINGLE POINT ENERGY        -1.091497309262
FINAL SINGLE POINT ENERGY        -1.053406543082
FINAL SINGLE POINT ENERGY        -1.024050534879
FINAL SINGLE POINT ENERGY        -1.007787240345
FINAL SINGLE POINT ENERGY        -1.001730655703
FINAL SINGLE POINT ENERGY        -1.000238668293
FINAL SINGLE POINT ENERGY        -0.999997037698
FINAL SINGLE POINT ENERGY        -0.999970124131
FINAL SINGLE POINT ENERGY        -0.999967289629
FINAL SINGLE POINT ENERGY        -0.999966777359
FINAL SINGLE POINT ENERGY        -0.999966642933
FINAL SINGLE POINT ENERGY        -0.999966603706
FINAL SINGLE POINT ENERGY        -0.999966591555
FINAL SINGLE POINT ENERGY        -0.999966587690

CARTESIAN COORDINATES (ANGSTROEM)
---------------------------------
  H      0.000000    0.000000    0.000000
  H     19.952623    0.000000    0.000000

FINAL SINGLE POINT ENERGY        -0.999966586420

DIPOLE MOMENT
-------------
                                X             Y             Z
Electronic contribution:      0.00000       0.00000       0.00000
Nuclear contribution   :     -0.00000       0.00000       0.00000
                        -----------------------------------------
Total Dipole Moment    :      0.00000       0.00000       0.00000
                        -----------------------------------------
Magnitude (a.u.)       :      0.00000
Magnitude (Debye)      :      0.00000

Rotational constants in cm-1:     0.000000     0.084017     0.084017
Rotational constants in MHz :     0.000000  2518.761623  2518.761623

                             ****ORCA TERMINATED NORMALLY****
TOTAL RUN TIME: 0 days 0 hours 1 minutes 40 seconds 803 msec
