                         Program Version 4.2.0 -  RELEASE  -
|  1> !rhf ccsd(t) def2-qzvpp tightscf
|  2> !normalprint
|  3>
|  4> %paras
|  5> #  rHH [19.952623149688797 16.43574799372698 13.538761800225439 11.152402139117903 9.1866653175426 7.567411809920191 6.233570019315557 5.134832907437553 4.229760619613384 3.4842175435383975 2.870084854071569 2.3641999865500756 1.9474830399087562 1.6042171611153242 1.32145576997553 1.088534267260644 0.8966678097917788 0.7386199822079362 0.6084298690766428 0.5011872336272722]
|  6>   rHH [0.5011872336272722 0.6084298690766428 0.7386199822079362 0.8966678097917788 1.088534267260644 1.32145576997553 1.6042171611153242 1.9474830399087562 2.3641999865500756 2.870084854071569 3.4842175435383975 4.229760619613384 5.134832907437553 6.233570019315557 7.567411809920191 9.1866653175426 11.152402139117903 13.538761800225439 16.43574799372698 19.952623149688797]
|  7> end
|  8>
|  9> %scf
| 10>   maxiter 500
| 11> end
| 12>
| 13> *int 0 1
| 14> H 0 0 0 0 0 0
| 15> H 1 0 0 {rHH} 0 0
| 16> *
| 17>
| 18>                          ****END OF INPUT****
 Total Charge           Charge          ....    0
 Multiplicity           Mult            ....    1
 Number of Electrons    NEL             ....    2
 Basis Dimension        Dim             ....   60

ORBITAL ENERGIES
----------------

  NO   OCC          E(Eh)            E(eV)
   0   2.0000      -0.681636       -18.5482
   1   0.0000       0.142350         3.8735
   2   0.0000       0.179146         4.8748
   3   0.0000       0.461183        12.5494
   4   0.0000       0.533111        14.5067
   5   0.0000       0.533111        14.5067

E(0)                                       ...     -1.065721951
E(0)                                       ...     -1.065721951
E(CORR)                                    ...     -0.038698620
E(TOT)                                     ...     -1.104420571
E(CCSD(T))                                 ...     -1.104420571

MULLIKEN ATOMIC CHARGES
-----------------------
   0 H :   -0.000000
   1 H :    0.000000
Sum of atomic charges:   -0.0000000

LOEWDIN ATOMIC CHARGES
----------------------
   0 H :   -0.000000
   1 H :    0.000000

  Mayer bond orders larger than 0.100000
B(  0-H ,  1-H ) :   0.9723

FINAL SINGLE POINT ENERGY        -1.104420571486
E(0)                                       ...     -1.118730199
FINAL SINGLE POINT ENERGY        -1.157895237755
FINAL SINGLE POINT ENERGY        -1.173863100472
FINAL SINGLE POINT ENERGY        -1.162277594131
FINAL SINGLE POINT ENERGY        -1.132472240952
FINAL SINGLE POINT ENERGY        -1.093551561726
FINAL SINGLE POINT ENERGY        -1.054699277794
FINAL SINGLE POINT ENERGY        -1.024607290986
FINAL SINGLE POINT ENERGY        -1.007921389217
FINAL SINGLE POINT ENERGY        -1.001749968075
FINAL SINGLE POINT ENERGY        -1.000245766013
FINAL SINGLE POINT ENERGY        -1.000000338820
FINAL SINGLE POINT ENERGY        -0.999971140758
FINAL SINGLE POINT ENERGY        -0.999967586533
FINAL SINGLE POINT ENERGY        -0.999967344958
FINAL SINGLE POINT ENERGY        -0.999966343906
FINAL SINGLE POINT ENERGY        -0.999966999856
FINAL SINGLE POINT ENERGY        -0.999965593432
E(CCSD(T))                                 ...     -0.999963442
FINAL SINGLE POINT ENERGY        -0.999963441600

CARTESIAN COORDINATES (ANGSTROEM)
---------------------------------
  H      0.000000    0.000000    0.000000
  H     19.952623    0.000000    0.000000

E(0)                                       ...     -0.727801173
E(0)                                       ...     -0.727801173
E(CORR)                                    ...      0.190597233
E(TOT)                                     ...     -0.537203939
E(CCSD(T))                                 ...     -0.537203939
FINAL SINGLE POINT ENERGY        -0.537203939101

DIPOLE MOMENT
-------------
                                X             Y             Z
Electronic contribution:      0.00000       0.00000       0.00000
Nuclear contribution   :     -0.00000       0.00000       0.00000
                        -----------------------------------------
Total Dipole Moment    :      0.00000       0.00000       0.00000
                        -----------------------------------------
Magnitude (a.u.)       :      0.00000
Magnitude (Debye)      :      0.00001

Rotational constants in cm-1:     0.000000     0.084017     0.084017
Rotational constants in MHz :     0.000000  2518.761623  2518.761623

                             ****ORCA TERMINATED NORMALLY****
TOTAL RUN TIME: 0 days 0 hours 1 minutes 11 seconds 175 msec
