                         Program Version 4.2.0 -  RELEASE  -
|  1> !rhf def2-qzvpp tightscf
|  2> !normalprint
|  3>
|  4> %paras
|  5> #  rHH [19.952623149688797 16.43574799372698 13.538761800225439 11.152402139117903 9.1866653175426 7.567411809920191 6.233570019315557 5.134832907437553 4.229760619613384 3.4842175435383975 2.870084854071569 2.3641999865500756 1.9474830399087562 1.6042171611153242 1.32145576997553 1.088534267260644 0.8966678097917788 0.7386199822079362 0.6084298690766428 0.5011872336272722]
|  6>   rHH [0.5011872336272722 0.6084298690766428 0.7386199822079362 0.8966678097917788 1.088534267260644 1.32145576997553 1.6042171611153242 1.9474830399087562 2.3641999865500756 2.870084854071569 3.4842175435383975 4.229760619613384 5.134832907437553 6.233570019315557 7.567411809920191 9.1866653175426 11.152402139117903 13.538761800225439 16.43574799372698 19.952623149688797]
|  7> end
|  8>
|  9> %scf
| 10>   maxiter 500
| 11> end
| 12>
| 13> %casscf
| 14>   nel 2
| 15>   norb 14
| 16> end
| 17>
| 18> *int 0 1
| 19> H 0 0 0 0 0 0
| 20> H 1 0 0 {rHH} 0 0
| 21> *
| 22>
| 23>                          ****END OF INPUT****
 Total Charge           Charge          ....    0
 Multiplicity           Mult            ....    1
 Number of Electrons    NEL             ....    2
 Basis Dimension        Dim             ....   60

ORBITAL ENERGIES
----------------

  NO   OCC          E(Eh)            E(eV)
   0   1.9752      -0.674274       -18.3479
   1   0.0095       0.969322        26.3766
   2   0.0069       1.060508        28.8579
   3   0.0038       1.283182        34.9172
   4   0.0038       1.283182        34.9172
   5   0.0001       3.668469        99.8241
   6   0.0001       3.405898        92.6792
   7   0.0001       3.308846        90.0383
   8   0.0001       3.308846        90.0383
   9   0.0001       4.251169       115.6802
  10   0.0001       3.307400        89.9989
  11   0.0001       3.307409        89.9992
  12   0.0000       1.240974        33.7686
  13   0.0000       0.290185         7.8963
  14   0.0000       0.748931        20.3795
  15   0.0000       1.157697        31.5025
  16   0.0000       1.157697        31.5025

MULLIKEN ATOMIC CHARGES
-----------------------
   0 H :   -0.000000
   1 H :    0.000000
Sum of atomic charges:   -0.0000000

LOEWDIN ATOMIC CHARGES
----------------------
   0 H :   -0.000000
   1 H :    0.000000

  Mayer bond orders larger than 0.100000
B(  0-H ,  1-H ) :   0.9726

FINAL SINGLE POINT ENERGY        -1.102767023481
FINAL SINGLE POINT ENERGY        -1.156402462817
FINAL SINGLE POINT ENERGY        -1.172501614990
FINAL SINGLE POINT ENERGY        -1.161087556515
FINAL SINGLE POINT ENERGY        -1.131498810361
FINAL SINGLE POINT ENERGY        -1.092868261988
FINAL SINGLE POINT ENERGY        -1.054288333316
FINAL SINGLE POINT ENERGY        -1.024430676800
FINAL SINGLE POINT ENERGY        -1.007875158365
FINAL SINGLE POINT ENERGY        -1.001739435703
FINAL SINGLE POINT ENERGY        -1.000243010236
FINAL SINGLE POINT ENERGY        -1.000000420499
FINAL SINGLE POINT ENERGY        -0.999971738508
FINAL SINGLE POINT ENERGY        -0.999967867673
FINAL SINGLE POINT ENERGY        -0.999966961211
FINAL SINGLE POINT ENERGY        -0.999966699562
FINAL SINGLE POINT ENERGY        -0.999966620905
FINAL SINGLE POINT ENERGY        -0.999966596562
FINAL SINGLE POINT ENERGY        -0.999966588942

CARTESIAN COORDINATES (ANGSTROEM)
---------------------------------
  H      0.000000    0.000000    0.000000
  H     19.952623    0.000000    0.000000

FINAL SINGLE POINT ENERGY        -0.999966586526

DIPOLE MOMENT
-------------
                                X             Y             Z
Electronic contribution:      0.00000       0.00000      -0.00000
Nuclear contribution   :     -0.00000       0.00000       0.00000
                        -----------------------------------------
Total Dipole Moment    :      0.00000       0.00000      -0.00000
                        -----------------------------------------
Magnitude (a.u.)       :      0.00000
Magnitude (Debye)      :      0.00000

Rotational constants in cm-1:     0.000000     0.084017     0.084017
Rotational constants in MHz :     0.000000  2518.761623  2518.761623

                             ****ORCA TERMINATED NORMALLY****
TOTAL RUN TIME: 0 days 0 hours 1 minutes 46 seconds 338 msec
