                         Program Version 4.2.0 -  RELEASE  -
|  1> !rhf def2-qzvpp tightscf
|  2> !normalprint
|  3>
|  4> %paras
|  5> #  rHH [19.952623149688797 16.43574799372698 13.538761800225439 11.152402139117903 9.1866653175426 7.567411809920191 6.233570019315557 5.134832907437553 4.229760619613384 3.4842175435383975 2.870084854071569 2.3641999865500756 1.9474830399087562 1.6042171611153242 1.32145576997553 1.088534267260644 0.8966678097917788 0.7386199822079362 0.6084298690766428 0.5011872336272722]
|  6>   rHH [0.5011872336272722 0.6084298690766428 0.7386199822079362 0.8966678097917788 1.088534267260644 1.32145576997553 1.6042171611153242 1.9474830399087562 2.3641999865500756 2.870084854071569 3.4842175435383975 4.229760619613384 5.134832907437553 6.233570019315557 7.567411809920191 9.1866653175426 11.152402139117903 13.538761800225439 16.43574799372698 19.952623149688797]
|  7> end
|  8>
|  9> %scf
| 10>   maxiter 500
| 11> end
| 12>
| 13> %casscf
| 14>   nel 2
| 15>   norb 10
| 16> end
| 17>
| 18> *int 0 1
| 19> H 0 0 0 0 0 0
| 20> H 1 0 0 {rHH} 0 0
| 21> *
| 22>
| 23>                          ****END OF INPUT****
 Total Charge           Charge          ....    0
 Multiplicity           Mult            ....    1
 Number of Electrons    NEL             ....    2
 Basis Dimension        Dim             ....   60

ORBITAL ENERGIES
----------------

  NO   OCC          E(Eh)            E(eV)
   0   1.9753      -0.674361       -18.3503
   1   0.0094       1.024396        27.8752
   2   0.0070       1.060378        28.8543
   3   0.0039       1.277990        34.7759
   4   0.0039       1.277990        34.7759
   5   0.0001       3.340881        90.9100
   6   0.0001       3.275183        89.1223
   7   0.0001       3.275183        89.1223
   8   0.0001       4.281328       116.5009
   9   0.0000       0.199831         5.4377
  10   0.0000       0.746731        20.3196
  11   0.0000       0.778939        21.1960
  12   0.0000       1.165133        31.7049
  13   0.0000       1.165133        31.7049

MULLIKEN ATOMIC CHARGES
-----------------------
   0 H :    0.000000
   1 H :   -0.000000
Sum of atomic charges:    0.0000000

LOEWDIN ATOMIC CHARGES
----------------------
   0 H :    0.000000
   1 H :   -0.000000

  Mayer bond orders larger than 0.100000
B(  0-H ,  1-H ) :   0.9733

FINAL SINGLE POINT ENERGY        -1.101666133528
FINAL SINGLE POINT ENERGY        -1.155801633217
FINAL SINGLE POINT ENERGY        -1.171955430863
FINAL SINGLE POINT ENERGY        -1.160612978299
FINAL SINGLE POINT ENERGY        -1.131118552063
FINAL SINGLE POINT ENERGY        -1.092574951425
FINAL SINGLE POINT ENERGY        -1.054120927330
FINAL SINGLE POINT ENERGY        -1.024357996440
FINAL SINGLE POINT ENERGY        -1.007855565642
FINAL SINGLE POINT ENERGY        -1.001737212067
FINAL SINGLE POINT ENERGY        -1.000239098810
FINAL SINGLE POINT ENERGY        -0.999997464146
FINAL SINGLE POINT ENERGY        -0.999970379281
FINAL SINGLE POINT ENERGY        -0.999967383235
FINAL SINGLE POINT ENERGY        -0.999966806507
FINAL SINGLE POINT ENERGY        -0.999966651450
FINAL SINGLE POINT ENERGY        -0.999966606150
FINAL SINGLE POINT ENERGY        -0.999966592215
FINAL SINGLE POINT ENERGY        -0.999966587847

CARTESIAN COORDINATES (ANGSTROEM)
---------------------------------
  H      0.000000    0.000000    0.000000
  H     19.952623    0.000000    0.000000

FINAL SINGLE POINT ENERGY        -0.999966586448

DIPOLE MOMENT
-------------
                                X             Y             Z
Electronic contribution:      0.00000      -0.00000       0.00000
Nuclear contribution   :     -0.00000       0.00000       0.00000
                        -----------------------------------------
Total Dipole Moment    :     -0.00000      -0.00000       0.00000
                        -----------------------------------------
Magnitude (a.u.)       :      0.00000
Magnitude (Debye)      :      0.00000

Rotational constants in cm-1:     0.000000     0.084017     0.084017
Rotational constants in MHz :     0.000000  2518.761623  2518.761623

                             ****ORCA TERMINATED NORMALLY****
TOTAL RUN TIME: 0 days 0 hours 1 minutes 41 seconds 956 msec
