                         Program Version 4.2.0 -  RELEASE  -
|  1> !rhf def2-qzvpp tightscf
|  2> !normalprint
|  3>
|  4> %paras
|  5> #  rHH [19.952623149688797 16.43574799372698 13.538761800225439 11.152402139117903 9.1866653175426 7.567411809920191 6.233570019315557 5.134832907437553 4.229760619613384 3.4842175435383975 2.870084854071569 2.3641999865500756 1.9474830399087562 1.6042171611153242 1.32145576997553 1.088534267260644 0.8966678097917788 0.7386199822079362 0.6084298690766428 0.5011872336272722]
|  6>   rHH [0.5011872336272722 0.6084298690766428 0.7386199822079362 0.8966678097917788 1.088534267260644 1.32145576997553 1.6042171611153242 1.9474830399087562 2.3641999865500756 2.870084854071569 3.4842175435383975 4.229760619613384 5.134832907437553 6.233570019315557 7.567411809920191 9.1866653175426 11.152402139117903 13.538761800225439 16.43574799372698 19.952623149688797]
|  7> end
|  8>
|  9> %scf
| 10>   maxiter 500
| 11> end
| 12>
| 13> %casscf
| 14>   nel 2
| 15>   norb 4
| 16> end
| 17>
| 18> *int 0 1
| 19> H 0 0 0 0 0 0
| 20> H 1 0 0 {rHH} 0 0
| 21> *
| 22>
| 23>                          ****END OF INPUT****
 Total Charge           Charge          ....    0
 Multiplicity           Mult            ....    1
 Number of Electrons    NEL             ....    2
 Basis Dimension        Dim             ....   60

ORBITAL ENERGIES
----------------

  NO   OCC          E(Eh)            E(eV)
   0   1.9786      -0.675746       -18.3880
   1   0.0101       1.015220        27.6255
   2   0.0071       1.125096        30.6154
   3   0.0042       1.268735        34.5240
   4   0.0000       0.195774         5.3273
   5   0.0000       0.440386        11.9835
   6   0.0000       0.533123        14.5070
   7   0.0000       0.782842        21.3022
   8   0.0000       0.799558        21.7571

MULLIKEN ATOMIC CHARGES
-----------------------
   0 H :    0.000000
   1 H :   -0.000000
Sum of atomic charges:   -0.0000000

LOEWDIN ATOMIC CHARGES
----------------------
   0 H :    0.000000
   1 H :   -0.000000

  Mayer bond orders larger than 0.100000
B(  0-H ,  1-H ) :   0.9763

FINAL SINGLE POINT ENERGY        -1.094223258309
FINAL SINGLE POINT ENERGY        -1.148164968313
FINAL SINGLE POINT ENERGY        -1.164786588551
FINAL SINGLE POINT ENERGY        -1.154083742270
FINAL SINGLE POINT ENERGY        -1.125470605321
FINAL SINGLE POINT ENERGY        -1.088126009799
FINAL SINGLE POINT ENERGY        -1.051208634527
FINAL SINGLE POINT ENERGY        -1.023002500095
FINAL SINGLE POINT ENERGY        -1.007461979066
FINAL SINGLE POINT ENERGY        -1.001661159247
FINAL SINGLE POINT ENERGY        -1.000226790084
FINAL SINGLE POINT ENERGY        -0.999995062731
FINAL SINGLE POINT ENERGY        -0.999969727050
FINAL SINGLE POINT ENERGY        -0.999967189640
FINAL SINGLE POINT ENERGY        -0.999966749229
FINAL SINGLE POINT ENERGY        -0.999966637531
FINAL SINGLE POINT ENERGY        -0.999966604839
FINAL SINGLE POINT ENERGY        -0.999966594710
FINAL SINGLE POINT ENERGY        -0.999966591494

CARTESIAN COORDINATES (ANGSTROEM)
---------------------------------
  H      0.000000    0.000000    0.000000
  H     19.952623    0.000000    0.000000

FINAL SINGLE POINT ENERGY        -0.999966590443

DIPOLE MOMENT
-------------
                                X             Y             Z
Electronic contribution:      0.00000      -0.00000      -0.00000
Nuclear contribution   :     -0.00000       0.00000       0.00000
                        -----------------------------------------
Total Dipole Moment    :      0.00000      -0.00000      -0.00000
                        -----------------------------------------
Magnitude (a.u.)       :      0.00000
Magnitude (Debye)      :      0.00000

Rotational constants in cm-1:     0.000000     0.084017     0.084017
Rotational constants in MHz :     0.000000  2518.761623  2518.761623

                             ****ORCA TERMINATED NORMALLY****
TOTAL RUN TIME: 0 days 0 hours 1 minutes 38 seconds 513 msec
