                         Program Version 4.2.0 -  RELEASE  -
|  1> !rhf def2-qzvpp tightscf
|  2> !normalprint
|  3>
|  4> %paras
|  5> #  rHH [19.952623149688797 16.43574799372698 13.538761800225439 11.152402139117903 9.1866653175426 7.567411809920191 6.233570019315557 5.134832907437553 4.229760619613384 3.4842175435383975 2.870084854071569 2.3641999865500756 1.9474830399087562 1.6042171611153242 1.32145576997553 1.088534267260644 0.8966678097917788 0.7386199822079362 0.6084298690766428 0.5011872336272722]
|  6>   rHH [0.5011872336272722 0.6084298690766428 0.7386199822079362 0.8966678097917788 1.088534267260644 1.32145576997553 1.6042171611153242 1.9474830399087562 2.3641999865500756 2.870084854071569 3.4842175435383975 4.229760619613384 5.134832907437553 6.233570019315557 7.567411809920191 9.1866653175426 11.152402139117903 13.538761800225439 16.43574799372698 19.952623149688797]
|  7> end
|  8>
|  9> %scf
| 10>   maxiter 500
| 11> end
| 12>
| 13> %casscf
| 14>   nel 2
| 15>   norb 16
| 16> end
| 17>
| 18> *int 0 1
| 19> H 0 0 0 0 0 0
| 20> H 1 0 0 {rHH} 0 0
| 21> *
| 22>
| 23>                          ****END OF INPUT****
 Total Charge           Charge          ....    0
 Multiplicity           Mult            ....    1
 Number of Electrons    NEL             ....    2
 Basis Dimension        Dim             ....   60

ORBITAL ENERGIES
----------------

  NO   OCC          E(Eh)            E(eV)
   0   1.9749      -0.674221       -18.3465
   1   0.0095       0.971024        26.4229
   2   0.0068       1.060940        28.8696
   3   0.0040       1.189035        32.3553
   4   0.0040       1.189035        32.3553
   5   0.0001       3.683906       100.2442
   6   0.0001       3.406471        92.6948
   7   0.0001       3.322452        90.4085
   8   0.0001       3.322452        90.4085
   9   0.0001       4.269294       116.1734
  10   0.0001       4.280963       116.4909
  11   0.0001       4.280963       116.4909
  12   0.0001       3.339026        90.8595
  13   0.0001       3.339029        90.8596
  14   0.0000       1.240115        33.7453
  15   0.0000       0.290254         7.8982
  16   0.0000       0.749630        20.3985
  17   0.0000       1.151498        31.3339
  18   0.0000       1.151498        31.3339

MULLIKEN ATOMIC CHARGES
-----------------------
   0 H :   -0.000000
   1 H :    0.000000
Sum of atomic charges:   -0.0000000

LOEWDIN ATOMIC CHARGES
----------------------
   0 H :   -0.000000
   1 H :    0.000000

  Mayer bond orders larger than 0.100000
B(  0-H ,  1-H ) :   0.9723

FINAL SINGLE POINT ENERGY        -1.103452575062
FINAL SINGLE POINT ENERGY        -1.157012745979
FINAL SINGLE POINT ENERGY        -1.173026169982
FINAL SINGLE POINT ENERGY        -1.161516023890
FINAL SINGLE POINT ENERGY        -1.131823743505
FINAL SINGLE POINT ENERGY        -1.093085163335
FINAL SINGLE POINT ENERGY        -1.054402812502
FINAL SINGLE POINT ENERGY        -1.024472688851
FINAL SINGLE POINT ENERGY        -1.007885360633
FINAL SINGLE POINT ENERGY        -1.001741013390
FINAL SINGLE POINT ENERGY        -1.000243183105
FINAL SINGLE POINT ENERGY        -1.000000434479
FINAL SINGLE POINT ENERGY        -0.999971742461
FINAL SINGLE POINT ENERGY        -0.999967870175
FINAL SINGLE POINT ENERGY        -0.999966962342
FINAL SINGLE POINT ENERGY        -0.999966699991
FINAL SINGLE POINT ENERGY        -0.999966621037
FINAL SINGLE POINT ENERGY        -0.999966596576
FINAL SINGLE POINT ENERGY        -0.999966588911

CARTESIAN COORDINATES (ANGSTROEM)
---------------------------------
  H      0.000000    0.000000    0.000000
  H     19.952623    0.000000    0.000000

FINAL SINGLE POINT ENERGY        -0.999966586477

DIPOLE MOMENT
-------------
                                X             Y             Z
Electronic contribution:      0.00000       0.00000      -0.00000
Nuclear contribution   :     -0.00000       0.00000       0.00000
                        -----------------------------------------
Total Dipole Moment    :      0.00000       0.00000      -0.00000
                        -----------------------------------------
Magnitude (a.u.)       :      0.00000
Magnitude (Debye)      :      0.00000

Rotational constants in cm-1:     0.000000     0.084017     0.084017
Rotational constants in MHz :     0.000000  2518.761623  2518.761623

                             ****ORCA TERMINATED NORMALLY****
TOTAL RUN TIME: 0 days 0 hours 1 minutes 50 seconds 91 msec
