                         Program Version 4.2.0 -  RELEASE  -
|  1> !rhf def2-qzvpp tightscf
|  2> !normalprint
|  3>
|  4> %paras
|  5> #  rHH [19.952623149688797 16.43574799372698 13.538761800225439 11.152402139117903 9.1866653175426 7.567411809920191 6.233570019315557 5.134832907437553 4.229760619613384 3.4842175435383975 2.870084854071569 2.3641999865500756 1.9474830399087562 1.6042171611153242 1.32145576997553 1.088534267260644 0.8966678097917788 0.7386199822079362 0.6084298690766428 0.5011872336272722]
|  6>   rHH [0.5011872336272722 0.6084298690766428 0.7386199822079362 0.8966678097917788 1.088534267260644 1.32145576997553 1.6042171611153242 1.9474830399087562 2.3641999865500756 2.870084854071569 3.4842175435383975 4.229760619613384 5.134832907437553 6.233570019315557 7.567411809920191 9.1866653175426 11.152402139117903 13.538761800225439 16.43574799372698 19.952623149688797]
|  7> end
|  8>
|  9> %scf
| 10>   maxiter 500
| 11> end
| 12>
| 13> %casscf
| 14>   nel 2
| 15>   norb 18
| 16> end
| 17>
| 18> *int 0 1
| 19> H 0 0 0 0 0 0
| 20> H 1 0 0 {rHH} 0 0
| 21> *
| 22>
| 23>                          ****END OF INPUT****
 Total Charge           Charge          ....    0
 Multiplicity           Mult            ....    1
 Number of Electrons    NEL             ....    2
 Basis Dimension        Dim             ....   60

ORBITAL ENERGIES
----------------

  NO   OCC          E(Eh)            E(eV)
   0   1.9749      -0.674224       -18.3466
   1   0.0095       0.971179        26.4271
   2   0.0068       1.061164        28.8757
   3   0.0040       1.189220        32.3603
   4   0.0040       1.189220        32.3603
   5   0.0001       3.685176       100.2787
   6   0.0001       3.404606        92.6440
   7   0.0001       3.315032        90.2066
   8   0.0001       3.315032        90.2066
   9   0.0001       4.274001       116.3015
  10   0.0001       4.284091       116.5760
  11   0.0001       4.284091       116.5760
  12   0.0001       3.339368        90.8688
  13   0.0001       3.339368        90.8688
  14   0.0000       1.285074        34.9686
  15   0.0000       1.285074        34.9686
  16   0.0000       1.240900        33.7666
  17   0.0000       0.291188         7.9236
  18   0.0000       0.749599        20.3976

MULLIKEN ATOMIC CHARGES
-----------------------
   0 H :   -0.000000
   1 H :    0.000000
Sum of atomic charges:   -0.0000000

LOEWDIN ATOMIC CHARGES
----------------------
   0 H :   -0.000000
   1 H :    0.000000

  Mayer bond orders larger than 0.100000
B(  0-H ,  1-H ) :   0.9723

FINAL SINGLE POINT ENERGY        -1.103454162814
FINAL SINGLE POINT ENERGY        -1.157126090776
FINAL SINGLE POINT ENERGY        -1.173132102127
FINAL SINGLE POINT ENERGY        -1.161610064576
FINAL SINGLE POINT ENERGY        -1.131901851712
FINAL SINGLE POINT ENERGY        -1.093143636956
FINAL SINGLE POINT ENERGY        -1.054439307827
FINAL SINGLE POINT ENERGY        -1.024489024899
FINAL SINGLE POINT ENERGY        -1.007889422838
FINAL SINGLE POINT ENERGY        -1.001741660059
FINAL SINGLE POINT ENERGY        -1.000243573922
FINAL SINGLE POINT ENERGY        -1.000000705415
FINAL SINGLE POINT ENERGY        -0.999971868502
FINAL SINGLE POINT ENERGY        -0.999967917477
FINAL SINGLE POINT ENERGY        -0.999966978711
FINAL SINGLE POINT ENERGY        -0.999966705376
FINAL SINGLE POINT ENERGY        -0.999966622716
FINAL SINGLE POINT ENERGY        -0.999966597027
FINAL SINGLE POINT ENERGY        -0.999966588958

CARTESIAN COORDINATES (ANGSTROEM)
---------------------------------
  H      0.000000    0.000000    0.000000
  H     19.952623    0.000000    0.000000

FINAL SINGLE POINT ENERGY        -0.999966586391

DIPOLE MOMENT
-------------
                                X             Y             Z
Electronic contribution:     -0.00000       0.00000       0.00000
Nuclear contribution   :     -0.00000       0.00000       0.00000
                        -----------------------------------------
Total Dipole Moment    :     -0.00000       0.00000       0.00000
                        -----------------------------------------
Magnitude (a.u.)       :      0.00000
Magnitude (Debye)      :      0.00000

Rotational constants in cm-1:     0.000000     0.084017     0.084017
Rotational constants in MHz :     0.000000  2518.761623  2518.761623

                             ****ORCA TERMINATED NORMALLY****
TOTAL RUN TIME: 0 days 0 hours 1 minutes 54 seconds 81 msec
