                         Program Version 4.2.0 -  RELEASE  -
|  1> !rhf def2-qzvpp tightscf
|  2> !normalprint
|  3>
|  4> %paras
|  5> #  rHH [19.952623149688797 16.43574799372698 13.538761800225439 11.152402139117903 9.1866653175426 7.567411809920191 6.233570019315557 5.134832907437553 4.229760619613384 3.4842175435383975 2.870084854071569 2.3641999865500756 1.9474830399087562 1.6042171611153242 1.32145576997553 1.088534267260644 0.8966678097917788 0.7386199822079362 0.6084298690766428 0.5011872336272722]
|  6>   rHH [0.5011872336272722 0.6084298690766428 0.7386199822079362 0.8966678097917788 1.088534267260644 1.32145576997553 1.6042171611153242 1.9474830399087562 2.3641999865500756 2.870084854071569 3.4842175435383975 4.229760619613384 5.134832907437553 6.233570019315557 7.567411809920191 9.1866653175426 11.152402139117903 13.538761800225439 16.43574799372698 19.952623149688797]
|  7> end
|  8>
|  9> %scf
| 10>   maxiter 500
| 11> end
| 12>
| 13> %casscf
| 14>   nel 2
| 15>   norb 20
| 16> end
| 17>
| 18> *int 0 1
| 19> H 0 0 0 0 0 0
| 20> H 1 0 0 {rHH} 0 0
| 21> *
| 22>
| 23>                          ****END OF INPUT****
 Total Charge           Charge          ....    0
 Multiplicity           Mult            ....    1
 Number of Electrons    NEL             ....    2
 Basis Dimension        Dim             ....   60

ORBITAL ENERGIES
----------------

  NO   OCC          E(Eh)            E(eV)
   0   1.9749      -0.674227       -18.3466
   1   0.0095       0.971980        26.4489
   2   0.0068       1.059468        28.8296
   3   0.0040       1.189765        32.3752
   4   0.0040       1.189765        32.3752
   5   0.0001       2.950255        80.2805
   6   0.0001       3.683580       100.2353
   7   0.0001       3.321630        90.3861
   8   0.0001       3.321630        90.3861
   9   0.0001       4.202275       114.3497
  10   0.0001       4.287944       116.6809
  11   0.0001       4.287944       116.6809
  12   0.0001       3.341370        90.9233
  13   0.0001       3.341944        90.9389
  14   0.0000       7.690072       209.2575
  15   0.0000       6.099462       165.9748
  16   0.0000       1.284107        34.9423
  17   0.0000       1.284107        34.9423
  18   0.0000       1.230545        33.4848

MULLIKEN ATOMIC CHARGES
-----------------------
   0 H :    0.000000
   1 H :   -0.000000
Sum of atomic charges:    0.0000000

LOEWDIN ATOMIC CHARGES
----------------------
   0 H :   -0.000000
   1 H :    0.000000

  Mayer bond orders larger than 0.100000
B(  0-H ,  1-H ) :   0.9724

FINAL SINGLE POINT ENERGY        -1.103576181202
FINAL SINGLE POINT ENERGY        -1.157246306119
FINAL SINGLE POINT ENERGY        -1.173248778590
FINAL SINGLE POINT ENERGY        -1.161720684158
FINAL SINGLE POINT ENERGY        -1.131999605630
FINAL SINGLE POINT ENERGY        -1.093218714862
FINAL SINGLE POINT ENERGY        -1.054487541974
FINAL SINGLE POINT ENERGY        -1.024511455063
FINAL SINGLE POINT ENERGY        -1.007895661460
FINAL SINGLE POINT ENERGY        -1.001742790287
FINAL SINGLE POINT ENERGY        -1.000243698826
FINAL SINGLE POINT ENERGY        -1.000000721831
FINAL SINGLE POINT ENERGY        -0.999971873565
FINAL SINGLE POINT ENERGY        -0.999967919250
FINAL SINGLE POINT ENERGY        -0.999966978731
FINAL SINGLE POINT ENERGY        -0.999966704850
FINAL SINGLE POINT ENERGY        -0.999966622101
FINAL SINGLE POINT ENERGY        -0.999966596398
FINAL SINGLE POINT ENERGY        -0.999966588333

CARTESIAN COORDINATES (ANGSTROEM)
---------------------------------
  H      0.000000    0.000000    0.000000
  H     19.952623    0.000000    0.000000

FINAL SINGLE POINT ENERGY        -0.999966585772

DIPOLE MOMENT
-------------
                                X             Y             Z
Electronic contribution:      0.00000       0.00000      -0.00000
Nuclear contribution   :     -0.00000       0.00000       0.00000
                        -----------------------------------------
Total Dipole Moment    :      0.00000       0.00000      -0.00000
                        -----------------------------------------
Magnitude (a.u.)       :      0.00000
Magnitude (Debye)      :      0.00000

Rotational constants in cm-1:     0.000000     0.084017     0.084017
Rotational constants in MHz :     0.000000  2518.761623  2518.761623

                             ****ORCA TERMINATED NORMALLY****
TOTAL RUN TIME: 0 days 0 hours 2 minutes 0 seconds 804 msec
