                         Program Version 4.2.0 -  RELEASE  -
|  1> !rhf def2-qzvpp tightscf
|  2> !normalprint
|  3>
|  4> %paras
|  5> #  rHH [19.952623149688797 16.43574799372698 13.538761800225439 11.152402139117903 9.1866653175426 7.567411809920191 6.233570019315557 5.134832907437553 4.229760619613384 3.4842175435383975 2.870084854071569 2.3641999865500756 1.9474830399087562 1.6042171611153242 1.32145576997553 1.088534267260644 0.8966678097917788 0.7386199822079362 0.6084298690766428 0.5011872336272722]
|  6>   rHH [0.5011872336272722 0.6084298690766428 0.7386199822079362 0.8966678097917788 1.088534267260644 1.32145576997553 1.6042171611153242 1.9474830399087562 2.3641999865500756 2.870084854071569 3.4842175435383975 4.229760619613384 5.134832907437553 6.233570019315557 7.567411809920191 9.1866653175426 11.152402139117903 13.538761800225439 16.43574799372698 19.952623149688797]
|  7> end
|  8>
|  9> %scf
| 10>   maxiter 500
| 11> end
| 12>
| 13> %casscf
| 14>   nel 2
| 15>   norb 12
| 16> end
| 17>
| 18> *int 0 1
| 19> H 0 0 0 0 0 0
| 20> H 1 0 0 {rHH} 0 0
| 21> *
| 22>
| 23>                          ****END OF INPUT****
 Total Charge           Charge          ....    0
 Multiplicity           Mult            ....    1
 Number of Electrons    NEL             ....    2
 Basis Dimension        Dim             ....   60

ORBITAL ENERGIES
----------------

  NO   OCC          E(Eh)            E(eV)
   0   1.9751      -0.674292       -18.3484
   1   0.0096       0.969025        26.3685
   2   0.0069       1.059913        28.8417
   3   0.0039       1.281405        34.8688
   4   0.0039       1.281405        34.8688
   5   0.0001       3.667809        99.8061
   6   0.0001       3.388883        92.2162
   7   0.0001       3.304217        89.9123
   8   0.0001       3.304217        89.9123
   9   0.0001       4.261553       115.9627
  10   0.0001       3.306073        89.9628
  11   0.0000       0.529434        14.4066
  12   0.0000       0.749097        20.3840
  13   0.0000       0.781162        21.2565
  14   0.0000       1.158066        31.5126
  15   0.0000       1.158066        31.5126

MULLIKEN ATOMIC CHARGES
-----------------------
   0 H :   -0.000000
   1 H :    0.000000
Sum of atomic charges:   -0.0000000

LOEWDIN ATOMIC CHARGES
----------------------
   0 H :   -0.000000
   1 H :    0.000000

  Mayer bond orders larger than 0.100000
B(  0-H ,  1-H ) :   0.9725

FINAL SINGLE POINT ENERGY        -1.102479905843
FINAL SINGLE POINT ENERGY        -1.156138241485
FINAL SINGLE POINT ENERGY        -1.172266216084
FINAL SINGLE POINT ENERGY        -1.160889017487
FINAL SINGLE POINT ENERGY        -1.131347074935
FINAL SINGLE POINT ENERGY        -1.092742311134
FINAL SINGLE POINT ENERGY        -1.054223547095
FINAL SINGLE POINT ENERGY        -1.024406234524
FINAL SINGLE POINT ENERGY        -1.007869534034
FINAL SINGLE POINT ENERGY        -1.001738198532
FINAL SINGLE POINT ENERGY        -1.000239437761
FINAL SINGLE POINT ENERGY        -0.999997917959
FINAL SINGLE POINT ENERGY        -0.999970622267
FINAL SINGLE POINT ENERGY        -0.999967474648
FINAL SINGLE POINT ENERGY        -0.999966835715
FINAL SINGLE POINT ENERGY        -0.999966660475
FINAL SINGLE POINT ENERGY        -0.999966608969
FINAL SINGLE POINT ENERGY        -0.999966593129
FINAL SINGLE POINT ENERGY        -0.999966588170

CARTESIAN COORDINATES (ANGSTROEM)
---------------------------------
  H      0.000000    0.000000    0.000000
  H     19.952623    0.000000    0.000000

FINAL SINGLE POINT ENERGY        -0.999966586585

DIPOLE MOMENT
-------------
                                X             Y             Z
Electronic contribution:      0.00000       0.00000      -0.00000
Nuclear contribution   :     -0.00000       0.00000       0.00000
                        -----------------------------------------
Total Dipole Moment    :     -0.00000       0.00000      -0.00000
                        -----------------------------------------
Magnitude (a.u.)       :      0.00000
Magnitude (Debye)      :      0.00000

Rotational constants in cm-1:     0.000000     0.084017     0.084017
Rotational constants in MHz :     0.000000  2518.761623  2518.761623

                             ****ORCA TERMINATED NORMALLY****
TOTAL RUN TIME: 0 days 0 hours 1 minutes 43 seconds 412 msec
