                         Program Version 4.2.0 -  RELEASE  -
|  1> !rhf def2-qzvpp tightscf
|  2> !normalprint
|  3>
|  4> %paras
|  5> #  rHH [19.952623149688797 16.43574799372698 13.538761800225439 11.152402139117903 9.1866653175426 7.567411809920191 6.233570019315557 5.134832907437553 4.229760619613384 3.4842175435383975 2.870084854071569 2.3641999865500756 1.9474830399087562 1.6042171611153242 1.32145576997553 1.088534267260644 0.8966678097917788 0.7386199822079362 0.6084298690766428 0.5011872336272722]
|  6>   rHH [0.5011872336272722 0.6084298690766428 0.7386199822079362 0.8966678097917788 1.088534267260644 1.32145576997553 1.6042171611153242 1.9474830399087562 2.3641999865500756 2.870084854071569 3.4842175435383975 4.229760619613384 5.134832907437553 6.233570019315557 7.567411809920191 9.1866653175426 11.152402139117903 13.538761800225439 16.43574799372698 19.952623149688797]
|  7> end
|  8>
|  9> %scf
| 10>   maxiter 500
| 11> end
| 12>
| 13> %casscf
| 14>   nel 2
| 15>   norb 8
| 16> end
| 17>
| 18> *int 0 1
| 19> H 0 0 0 0 0 0
| 20> H 1 0 0 {rHH} 0 0
| 21> *
| 22>
| 23>                          ****END OF INPUT****
 Total Charge           Charge          ....    0
 Multiplicity           Mult            ....    1
 Number of Electrons    NEL             ....    2
 Basis Dimension        Dim             ....   60

ORBITAL ENERGIES
----------------

  NO   OCC          E(Eh)            E(eV)
   0   1.9754      -0.674377       -18.3507
   1   0.0095       1.022521        27.8242
   2   0.0069       1.111947        30.2576
   3   0.0040       1.278250        34.7829
   4   0.0040       1.278741        34.7963
   5   0.0001       3.625697        98.6602
   6   0.0001       3.269519        88.9681
   7   0.0000       0.199975         5.4416
   8   0.0000       0.498436        13.5631
   9   0.0000       0.779229        21.2039
  10   0.0000       0.799831        21.7645
  11   0.0000       1.124795        30.6072

MULLIKEN ATOMIC CHARGES
-----------------------
   0 H :    0.000000
   1 H :   -0.000000
Sum of atomic charges:   -0.0000000

LOEWDIN ATOMIC CHARGES
----------------------
   0 H :    0.000000
   1 H :   -0.000000

  Mayer bond orders larger than 0.100000
B(  0-H ,  1-H ) :   0.9734

FINAL SINGLE POINT ENERGY        -1.100898107367
FINAL SINGLE POINT ENERGY        -1.155088126764
FINAL SINGLE POINT ENERGY        -1.171302195964
FINAL SINGLE POINT ENERGY        -1.160036157476
FINAL SINGLE POINT ENERGY        -1.130631332415
FINAL SINGLE POINT ENERGY        -1.092191861525
FINAL SINGLE POINT ENERGY        -1.053873299272
FINAL SINGLE POINT ENERGY        -1.024253834703
FINAL SINGLE POINT ENERGY        -1.007832609271
FINAL SINGLE POINT ENERGY        -1.001735226950
FINAL SINGLE POINT ENERGY        -1.000238963765
FINAL SINGLE POINT ENERGY        -0.999997258893
FINAL SINGLE POINT ENERGY        -0.999970257451
FINAL SINGLE POINT ENERGY        -0.999967336898
FINAL SINGLE POINT ENERGY        -0.999966791202
FINAL SINGLE POINT ENERGY        -0.999966646109
FINAL SINGLE POINT ENERGY        -0.999966603956
FINAL SINGLE POINT ENERGY        -0.999966590981
FINAL SINGLE POINT ENERGY        -0.999966586896

CARTESIAN COORDINATES (ANGSTROEM)
---------------------------------
  H      0.000000    0.000000    0.000000
  H     19.952623    0.000000    0.000000

FINAL SINGLE POINT ENERGY        -0.999966585575

DIPOLE MOMENT
-------------
                                X             Y             Z
Electronic contribution:      0.00000       0.00000      -0.00000
Nuclear contribution   :     -0.00000       0.00000       0.00000
                        -----------------------------------------
Total Dipole Moment    :      0.00000       0.00000      -0.00000
                        -----------------------------------------
Magnitude (a.u.)       :      0.00000
Magnitude (Debye)      :      0.00000

Rotational constants in cm-1:     0.000000     0.084017     0.084017
Rotational constants in MHz :     0.000000  2518.761623  2518.761623

                             ****ORCA TERMINATED NORMALLY****
TOTAL RUN TIME: 0 days 0 hours 1 minutes 40 seconds 35 msec
