                         Program Version 4.2.0 -  RELEASE  -
|  1> !uks bp86 6-31g* tightscf anfreq
|  2> !autoaux
|  3> !normalprint
|  4> !moread noiter
|  5>
|  6> %moinp "benzene_0_1_bp86_6-31gpol.eopt.gbw"
|  7>
|  8> %scf
|  9>   maxiter 500
| 10> end
| 11>
| 12> *xyzfile 0 1 benzene_0_1_bp86_6-31gpol.eopt.xyz
| 13>
| 14>                          ****END OF INPUT****

CARTESIAN COORDINATES (ANGSTROEM)
---------------------------------
  C      1.423723   -0.228462    0.005652
  C      0.521402   -1.345298   -0.009075
  C     -0.897564   -1.122790   -0.014168
  C     -1.414165    0.217473   -0.004650
  C     -0.511846    1.334305    0.010089
  C      0.907124    1.111798    0.015157
  H      2.504241   -0.398629    0.009723
  H      0.914777   -2.365583   -0.016528
  H     -1.584211   -1.973613   -0.025418
  H     -2.494686    0.387615   -0.008718
  H     -0.905207    2.354594    0.017591
  H      1.593762    1.962629    0.026355

 Total Charge           Charge          ....    0
 Multiplicity           Mult            ....    1
 Number of Electrons    NEL             ....   42
 Basis Dimension        Dim             ....   96

ORBITAL ENERGIES
----------------
                 SPIN UP ORBITALS
  NO   OCC          E(Eh)            E(eV)
   0   1.0000      -9.918707      -269.9017
   1   1.0000      -9.918699      -269.9015
   2   1.0000      -9.918564      -269.8979
   3   1.0000      -9.918482      -269.8956
   4   1.0000      -9.918401      -269.8934
   5   1.0000      -9.918378      -269.8928
   6   1.0000      -0.754227       -20.5236
   7   1.0000      -0.662581       -18.0297
   8   1.0000      -0.662484       -18.0271
   9   1.0000      -0.535735       -14.5781
  10   1.0000      -0.535729       -14.5779
  11   1.0000      -0.459218       -12.4960
  12   1.0000      -0.416757       -11.3405
  13   1.0000      -0.381476       -10.3805
  14   1.0000      -0.368194       -10.0191
  15   1.0000      -0.368049       -10.0151
  16   1.0000      -0.310569        -8.4510
  17   1.0000      -0.299156        -8.1405
  18   1.0000      -0.299100        -8.1389
  19   1.0000      -0.217154        -5.9091
  20   1.0000      -0.217028        -5.9056
  21   0.0000      -0.036603        -0.9960
  22   0.0000      -0.036313        -0.9881
  23   0.0000       0.064709         1.7608
  24   0.0000       0.098135         2.6704
  25   0.0000       0.116624         3.1735

                 SPIN DOWN ORBITALS
  NO   OCC          E(Eh)            E(eV)
   0   1.0000      -9.918707      -269.9017
   1   1.0000      -9.918699      -269.9015
   2   1.0000      -9.918564      -269.8979
   3   1.0000      -9.918482      -269.8956
   4   1.0000      -9.918401      -269.8934
   5   1.0000      -9.918378      -269.8928
   6   1.0000      -0.754227       -20.5236
   7   1.0000      -0.662581       -18.0297
   8   1.0000      -0.662484       -18.0271
   9   1.0000      -0.535735       -14.5781
  10   1.0000      -0.535729       -14.5779
  11   1.0000      -0.459218       -12.4960
  12   1.0000      -0.416757       -11.3405
  13   1.0000      -0.381476       -10.3805
  14   1.0000      -0.368194       -10.0191
  15   1.0000      -0.368049       -10.0151
  16   1.0000      -0.310569        -8.4510
  17   1.0000      -0.299156        -8.1405
  18   1.0000      -0.299100        -8.1389
  19   1.0000      -0.217154        -5.9091
  20   1.0000      -0.217028        -5.9056
  21   0.0000      -0.036603        -0.9960
  22   0.0000      -0.036313        -0.9881
  23   0.0000       0.064709         1.7608
  24   0.0000       0.098135         2.6704
  25   0.0000       0.116624         3.1735

MULLIKEN ATOMIC CHARGES AND SPIN POPULATIONS
--------------------------------------------
   0 C :   -0.145626    0.000000
   1 C :   -0.136218    0.000000
   2 C :   -0.141333    0.000000
   3 C :   -0.145625    0.000000
   4 C :   -0.136219    0.000000
   5 C :   -0.141333    0.000000
   6 H :    0.143462    0.000000
   7 H :    0.137608    0.000000
   8 H :    0.142107    0.000000
   9 H :    0.143462    0.000000
  10 H :    0.137608    0.000000
  11 H :    0.142107    0.000000
Sum of atomic charges         :   -0.0000000

LOEWDIN ATOMIC CHARGES AND SPIN POPULATIONS
-------------------------------------------
   0 C :   -0.136429    0.000000
   1 C :   -0.134140    0.000000
   2 C :   -0.135878    0.000000
   3 C :   -0.136429    0.000000
   4 C :   -0.134140    0.000000
   5 C :   -0.135878    0.000000
   6 H :    0.135930    0.000000
   7 H :    0.134505    0.000000
   8 H :    0.136011    0.000000
   9 H :    0.135930    0.000000
  10 H :    0.134505    0.000000
  11 H :    0.136011    0.000000

  Mayer bond orders larger than 0.100000
B(  0-C ,  1-C ) :   1.4448 B(  0-C ,  3-C ) :   0.1024 B(  0-C ,  5-C ) :   1.4451
B(  0-C ,  6-H ) :   0.9207 B(  1-C ,  2-C ) :   1.4447 B(  1-C ,  4-C ) :   0.1018
B(  1-C ,  7-H ) :   0.9229 B(  2-C ,  3-C ) :   1.4451 B(  2-C ,  5-C ) :   0.1015
B(  2-C ,  8-H ) :   0.9208 B(  3-C ,  4-C ) :   1.4448 B(  3-C ,  9-H ) :   0.9207
B(  4-C ,  5-C ) :   1.4447 B(  4-C , 10-H ) :   0.9229 B(  5-C , 11-H ) :   0.9208

FINAL SINGLE POINT ENERGY      -232.230652227577

DIPOLE MOMENT
-------------
                                X             Y             Z
Electronic contribution:     -0.00000       0.00001      -0.00000
Nuclear contribution   :      0.00000      -0.00001       0.00000
                        -----------------------------------------
Total Dipole Moment    :     -0.00000      -0.00000       0.00000
                        -----------------------------------------
Magnitude (a.u.)       :      0.00000
Magnitude (Debye)      :      0.00000

VIBRATIONAL FREQUENCIES
-----------------------

Scaling factor for frequencies =  1.000000000  (already applied!)

   0:         0.00 cm**-1
   1:         0.00 cm**-1
   2:         0.00 cm**-1
   3:         0.00 cm**-1
   4:         0.00 cm**-1
   5:         0.00 cm**-1
   6:       435.71 cm**-1
   7:       436.22 cm**-1
   8:       593.24 cm**-1
   9:       593.58 cm**-1
  10:       645.38 cm**-1
  11:       710.03 cm**-1
  12:       805.50 cm**-1
  13:       806.48 cm**-1
  14:       899.45 cm**-1
  15:       900.43 cm**-1
  16:       914.11 cm**-1
  17:       936.68 cm**-1
  18:       978.68 cm**-1
  19:       985.43 cm**-1
  20:       986.44 cm**-1
  21:      1110.70 cm**-1
  22:      1132.48 cm**-1
  23:      1133.10 cm**-1
  24:      1201.07 cm**-1
  25:      1312.90 cm**-1
  26:      1427.94 cm**-1
  27:      1428.33 cm**-1
  28:      1495.46 cm**-1
  29:      1496.38 cm**-1
  30:      3120.17 cm**-1
  31:      3127.66 cm**-1
  32:      3130.49 cm**-1
  33:      3142.21 cm**-1
  34:      3144.78 cm**-1
  35:      3153.05 cm**-1

IR SPECTRUM
-----------

 Mode    freq (cm**-1)   T**2         TX         TY         TZ
-------------------------------------------------------------------
   6:       435.71    0.000004  (  0.000168   0.001383  -0.001337)
   7:       436.22    0.000888  (  0.002178  -0.001023  -0.029709)
   8:       593.24    0.000000  ( -0.000012   0.000031  -0.000009)
   9:       593.58    0.000000  ( -0.000031  -0.000015  -0.000002)
  10:       645.38   88.424820  ( -0.052428  -0.092162   9.402849)
  11:       710.03    0.000000  ( -0.000047  -0.000212   0.000031)
  12:       805.50    0.000000  ( -0.000004   0.000317   0.000016)
  13:       806.48    0.000000  (  0.000319  -0.000006   0.000040)
  14:       899.45    0.002822  (  0.008490  -0.008471  -0.051753)
  15:       900.43    0.003151  (  0.006567  -0.001738  -0.055720)
  16:       914.11    0.000000  ( -0.000004   0.000006   0.000011)
  17:       936.68    0.000000  ( -0.000061  -0.000273   0.000010)
  18:       978.68    0.001309  (  0.001646   0.036138  -0.000551)
  19:       985.43    3.224174  (  1.276771   1.262419   0.018132)
  20:       986.44    2.954851  ( -1.218953   1.212016   0.004667)
  21:      1110.70    0.003985  (  0.063060   0.002884   0.000764)
  22:      1132.48    0.000000  ( -0.000107  -0.000039   0.000028)
  23:      1133.10    0.000000  (  0.000063  -0.000084  -0.000021)
  24:      1201.07    0.005015  (  0.070354   0.008069   0.000546)
  25:      1312.90    0.000000  (  0.000002   0.000008   0.000000)
  26:      1427.94    6.503160  (  1.310949   2.187203   0.026725)
  27:      1428.33    6.353565  (  2.149669  -1.316240  -0.000905)
  28:      1495.46    0.000000  (  0.000098   0.000113  -0.000041)
  29:      1496.38    0.000000  (  0.000116  -0.000105  -0.000068)
  30:      3120.17    0.377808  ( -0.527401  -0.315654  -0.004253)
  31:      3127.66    0.000001  ( -0.000637   0.000440   0.000015)
  32:      3130.49    0.000000  ( -0.000009   0.000235   0.000059)
  33:      3142.21   45.650369  ( -6.141499   2.816440  -0.005302)
  34:      3144.78   45.195639  ( -2.720649  -6.147303  -0.066115)
  35:      3153.05    0.000000  ( -0.000432  -0.000513  -0.000010)

--------------------------
THERMOCHEMISTRY AT 298.15K
--------------------------

Temperature         ... 298.15 K
Pressure            ... 1.00 atm
Total Mass          ... 78.11 AMU

Throughout the following assumptions are being made:
  (1) The electronic state is orbitally nondegenerate
  (2) There are no thermally accessible electronically excited states
  (3) Hindered rotations indicated by low frequency modes are not
      treated as such but are treated as vibrations and this may
      cause some error
  (4) All equations used are the standard statistical mechanics
      equations for an ideal gas
  (5) All vibrations are strictly harmonic

freq.     435.71  E(vib)   ...       0.17
freq.     436.22  E(vib)   ...       0.17
freq.     593.24  E(vib)   ...       0.10
freq.     593.58  E(vib)   ...       0.10
freq.     645.38  E(vib)   ...       0.09
freq.     710.03  E(vib)   ...       0.07
freq.     805.50  E(vib)   ...       0.05
freq.     806.48  E(vib)   ...       0.05
freq.     899.45  E(vib)   ...       0.03
freq.     900.43  E(vib)   ...       0.03
freq.     914.11  E(vib)   ...       0.03
freq.     936.68  E(vib)   ...       0.03
freq.     978.68  E(vib)   ...       0.03
freq.     985.43  E(vib)   ...       0.02
freq.     986.44  E(vib)   ...       0.02
freq.    1110.70  E(vib)   ...       0.02
freq.    1132.48  E(vib)   ...       0.01
freq.    1133.10  E(vib)   ...       0.01
freq.    1201.07  E(vib)   ...       0.01
freq.    1312.90  E(vib)   ...       0.01
freq.    1427.94  E(vib)   ...       0.00
freq.    1428.33  E(vib)   ...       0.00
freq.    1495.46  E(vib)   ...       0.00
freq.    1496.38  E(vib)   ...       0.00
freq.    3120.17  E(vib)   ...       0.00
freq.    3127.66  E(vib)   ...       0.00
freq.    3130.49  E(vib)   ...       0.00
freq.    3142.21  E(vib)   ...       0.00
freq.    3144.78  E(vib)   ...       0.00
freq.    3153.05  E(vib)   ...       0.00

------------
INNER ENERGY
------------

The inner energy is: U= E(el) + E(ZPE) + E(vib) + E(rot) + E(trans)
    E(el)   - is the total energy from the electronic structure calculation
              = E(kin-el) + E(nuc-el) + E(el-el) + E(nuc-nuc)
    E(ZPE)  - the the zero temperature vibrational energy from the frequency calculation
    E(vib)  - the the finite temperature correction to E(ZPE) due to population
              of excited vibrational states
    E(rot)  - is the rotational thermal energy
    E(trans)- is the translational thermal energy

Summary of contributions to the inner energy U:
Electronic energy                ...   -232.23065223 Eh
Zero point energy                ...      0.09610244 Eh      60.31 kcal/mol
Thermal vibrational correction   ...      0.00172033 Eh       1.08 kcal/mol
Thermal rotational correction    ...      0.00141627 Eh       0.89 kcal/mol
Thermal translational correction ...      0.00141627 Eh       0.89 kcal/mol
-----------------------------------------------------------------------
Total thermal energy                   -232.12999691 Eh

Summary of corrections to the electronic energy:
(perhaps to be used in another calculation)
Total thermal correction                  0.00455288 Eh       2.86 kcal/mol
Non-thermal (ZPE) correction              0.09610244 Eh      60.31 kcal/mol
-----------------------------------------------------------------------
Total correction                          0.10065531 Eh      63.16 kcal/mol

--------
ENTHALPY
--------

The enthalpy is H = U + kB*T
                kB is Boltzmann's constant
Total free energy                 ...   -232.12999691 Eh
Thermal Enthalpy correction       ...      0.00094421 Eh       0.59 kcal/mol
-----------------------------------------------------------------------
Total Enthalpy                    ...   -232.12905270 Eh

Note: Only C1 symmetry has been detected, increase convergence thresholds
      if your molecule has a higher symmetry. Symmetry factor of 1.0 is
      used for the rotational entropy correction.

Note: Rotational entropy computed according to Herzberg
Infrared and Raman Spectra, Chapter V,1, Van Nostrand Reinhold, 1945
Point Group:  C1, Symmetry Number:   1
Rotational constants in cm-1:     0.179992     0.179918     0.089978

Vibrational entropy computed according to the QRRHO of S. Grimme
Chem.Eur.J. 2012 18 9955

-------
ENTROPY
-------

The entropy contributions are T*S = T*(S(el)+S(vib)+S(rot)+S(trans))
     S(el)   - electronic entropy
     S(vib)  - vibrational entropy
     S(rot)  - rotational entropy
     S(trans)- translational entropy
The entropies will be listed as mutliplied by the temperature to get
units of energy

Electronic entropy                ...      0.00000000 Eh      0.00 kcal/mol
Vibrational entropy               ...      0.00228427 Eh      1.43 kcal/mol
Rotational entropy                ...      0.01226701 Eh      7.70 kcal/mol
Translational entropy             ...      0.01852142 Eh     11.62 kcal/mol
-----------------------------------------------------------------------
Final entropy term                ...      0.03307270 Eh     20.75 kcal/mol

In case the symmetry of your molecule has not been determined correctly
or in case you have a reason to use a different symmetry number we print
out the resulting rotational entropy values for sn=1,12 :
 --------------------------------------------------------
|  sn= 1 | S(rot)=       0.01226701 Eh      7.70 kcal/mol|
|  sn= 2 | S(rot)=       0.01161255 Eh      7.29 kcal/mol|
|  sn= 3 | S(rot)=       0.01122972 Eh      7.05 kcal/mol|
|  sn= 4 | S(rot)=       0.01095810 Eh      6.88 kcal/mol|
|  sn= 5 | S(rot)=       0.01074741 Eh      6.74 kcal/mol|
|  sn= 6 | S(rot)=       0.01057527 Eh      6.64 kcal/mol|
|  sn= 7 | S(rot)=       0.01042972 Eh      6.54 kcal/mol|
|  sn= 8 | S(rot)=       0.01030364 Eh      6.47 kcal/mol|
|  sn= 9 | S(rot)=       0.01019243 Eh      6.40 kcal/mol|
|  sn=10 | S(rot)=       0.01009295 Eh      6.33 kcal/mol|
|  sn=11 | S(rot)=       0.01000296 Eh      6.28 kcal/mol|
|  sn=12 | S(rot)=       0.00992081 Eh      6.23 kcal/mol|
 --------------------------------------------------------

-------------------
GIBBS FREE ENERGY
-------------------

The Gibbs free energy is G = H - T*S

Total enthalpy                    ...   -232.12905270 Eh
Total entropy correction          ...     -0.03307270 Eh    -20.75 kcal/mol
-----------------------------------------------------------------------
Final Gibbs free energy         ...   -232.16212541 Eh

For completeness - the Gibbs free energy minus the electronic energy
G-E(el)                           ...      0.06852682 Eh     43.00 kcal/mol

                             ****ORCA TERMINATED NORMALLY****
TOTAL RUN TIME: 0 days 0 hours 3 minutes 45 seconds 480 msec
