                         Program Version 4.2.0 -  RELEASE  -
|  1> !uks bp86 6-31g* tightscf anfreq
|  2> !autoaux
|  3> !normalprint
|  4>
|  5> %scf
|  6>   maxiter 500
|  7> end
|  8>
|  9> *xyzfile 0 1 benzene_0_1_bp86_6-31gpol.opt.xyz
| 10>
| 11>                          ****END OF INPUT****

CARTESIAN COORDINATES (ANGSTROEM)
---------------------------------
  C      1.392214   -0.223483    0.005510
  C      0.509870   -1.315569   -0.008856
  C     -0.877466   -1.097910   -0.013889
  C     -1.382664    0.212515   -0.004507
  C     -0.500318    1.304570    0.009868
  C      0.887037    1.086920    0.014878
  H      2.474890   -0.393936    0.009536
  H      0.904025   -2.337891   -0.016204
  H     -1.565462   -1.950407   -0.025216
  H     -2.465351    0.382893   -0.008526
  H     -0.894438    2.326907    0.017327
  H      1.575013    1.939431    0.026088

 Total Charge           Charge          ....    0
 Multiplicity           Mult            ....    1
 Number of Electrons    NEL             ....   42
 Basis Dimension        Dim             ....   96

ORBITAL ENERGIES
----------------
                 SPIN UP ORBITALS
  NO   OCC          E(Eh)            E(eV)
   0   1.0000      -9.911286      -269.6998
   1   1.0000      -9.911238      -269.6985
   2   1.0000      -9.911103      -269.6948
   3   1.0000      -9.910952      -269.6907
   4   1.0000      -9.910855      -269.6881
   5   1.0000      -9.910800      -269.6866
   6   1.0000      -0.768217       -20.9043
   7   1.0000      -0.669066       -18.2062
   8   1.0000      -0.668992       -18.2042
   9   1.0000      -0.537770       -14.6335
  10   1.0000      -0.537743       -14.6327
  11   1.0000      -0.465513       -12.6673
  12   1.0000      -0.409244       -11.1361
  13   1.0000      -0.388968       -10.5844
  14   1.0000      -0.369740       -10.0611
  15   1.0000      -0.369596       -10.0572
  16   1.0000      -0.319983        -8.7072
  17   1.0000      -0.297450        -8.0940
  18   1.0000      -0.297433        -8.0936
  19   1.0000      -0.220749        -6.0069
  20   1.0000      -0.220610        -6.0031
  21   0.0000      -0.030392        -0.8270
  22   0.0000      -0.030039        -0.8174
  23   0.0000       0.061881         1.6839
  24   0.0000       0.113379         3.0852
  25   0.0000       0.115311         3.1378

                 SPIN DOWN ORBITALS
  NO   OCC          E(Eh)            E(eV)
   0   1.0000      -9.911286      -269.6998
   1   1.0000      -9.911238      -269.6985
   2   1.0000      -9.911103      -269.6948
   3   1.0000      -9.910952      -269.6907
   4   1.0000      -9.910855      -269.6881
   5   1.0000      -9.910800      -269.6866
   6   1.0000      -0.768217       -20.9043
   7   1.0000      -0.669066       -18.2062
   8   1.0000      -0.668992       -18.2042
   9   1.0000      -0.537770       -14.6335
  10   1.0000      -0.537743       -14.6327
  11   1.0000      -0.465513       -12.6673
  12   1.0000      -0.409244       -11.1361
  13   1.0000      -0.388968       -10.5844
  14   1.0000      -0.369740       -10.0611
  15   1.0000      -0.369596       -10.0572
  16   1.0000      -0.319983        -8.7072
  17   1.0000      -0.297450        -8.0940
  18   1.0000      -0.297433        -8.0936
  19   1.0000      -0.220749        -6.0069
  20   1.0000      -0.220610        -6.0031
  21   0.0000      -0.030392        -0.8270
  22   0.0000      -0.030039        -0.8174
  23   0.0000       0.061881         1.6839
  24   0.0000       0.113379         3.0852
  25   0.0000       0.115311         3.1378

MULLIKEN ATOMIC CHARGES AND SPIN POPULATIONS
--------------------------------------------
   0 C :   -0.141875    0.000000
   1 C :   -0.132869    0.000000
   2 C :   -0.137138    0.000000
   3 C :   -0.141872    0.000000
   4 C :   -0.132877    0.000000
   5 C :   -0.137123    0.000000
   6 H :    0.139789    0.000000
   7 H :    0.133818    0.000000
   8 H :    0.138268    0.000000
   9 H :    0.139793    0.000000
  10 H :    0.133816    0.000000
  11 H :    0.138269    0.000000
Sum of atomic charges         :   -0.0000000

LOEWDIN ATOMIC CHARGES AND SPIN POPULATIONS
-------------------------------------------
   0 C :   -0.135029    0.000000
   1 C :   -0.132842    0.000000
   2 C :   -0.134420    0.000000
   3 C :   -0.135035    0.000000
   4 C :   -0.132837    0.000000
   5 C :   -0.134418    0.000000
   6 H :    0.134565    0.000000
   7 H :    0.133098    0.000000
   8 H :    0.134627    0.000000
   9 H :    0.134567    0.000000
  10 H :    0.133097    0.000000
  11 H :    0.134628    0.000000

  Mayer bond orders larger than 0.100000
B(  0-C ,  1-C ) :   1.4541 B(  0-C ,  3-C ) :   0.1003 B(  0-C ,  5-C ) :   1.4542
B(  0-C ,  6-H ) :   0.9206 B(  1-C ,  2-C ) :   1.4540 B(  1-C ,  7-H ) :   0.9229
B(  2-C ,  3-C ) :   1.4541 B(  2-C ,  8-H ) :   0.9208 B(  3-C ,  4-C ) :   1.4541
B(  3-C ,  9-H ) :   0.9206 B(  4-C ,  5-C ) :   1.4540 B(  4-C , 10-H ) :   0.9229
B(  5-C , 11-H ) :   0.9208

FINAL SINGLE POINT ENERGY      -232.235685616121

DIPOLE MOMENT
-------------
                                X             Y             Z
Electronic contribution:      0.00001       0.00005      -0.00000
Nuclear contribution   :      0.00000      -0.00004       0.00000
                        -----------------------------------------
Total Dipole Moment    :      0.00001       0.00001       0.00000
                        -----------------------------------------
Magnitude (a.u.)       :      0.00001
Magnitude (Debye)      :      0.00004

VIBRATIONAL FREQUENCIES
-----------------------

Scaling factor for frequencies =  1.000000000  (already applied!)

   0:         0.00 cm**-1
   1:         0.00 cm**-1
   2:         0.00 cm**-1
   3:         0.00 cm**-1
   4:         0.00 cm**-1
   5:         0.00 cm**-1
   6:       397.98 cm**-1
   7:       398.82 cm**-1
   8:       600.53 cm**-1
   9:       600.89 cm**-1
  10:       666.21 cm**-1
  11:       695.24 cm**-1
  12:       829.45 cm**-1
  13:       830.38 cm**-1
  14:       925.03 cm**-1
  15:       926.03 cm**-1
  16:       967.18 cm**-1
  17:       985.72 cm**-1
  18:       996.43 cm**-1
  19:      1040.89 cm**-1
  20:      1041.82 cm**-1
  21:      1152.64 cm**-1
  22:      1173.47 cm**-1
  23:      1173.91 cm**-1
  24:      1338.15 cm**-1
  25:      1357.28 cm**-1
  26:      1483.14 cm**-1
  27:      1483.56 cm**-1
  28:      1606.47 cm**-1
  29:      1607.32 cm**-1
  30:      3093.76 cm**-1
  31:      3102.20 cm**-1
  32:      3105.15 cm**-1
  33:      3118.55 cm**-1
  34:      3121.25 cm**-1
  35:      3130.81 cm**-1

IR SPECTRUM
-----------

 Mode    freq (cm**-1)   T**2         TX         TY         TZ
-------------------------------------------------------------------
   6:       397.98    0.000105  ( -0.000165  -0.000699   0.010209)
   7:       398.82    0.000429  (  0.002055  -0.001461  -0.020564)
   8:       600.53    0.000000  ( -0.000028  -0.000099   0.000135)
   9:       600.89    0.000000  (  0.000037  -0.000000   0.000103)
  10:       666.21   82.110173  (  0.050556   0.088807  -9.060890)
  11:       695.24    0.000001  (  0.000124   0.000528  -0.000737)
  12:       829.45    0.000001  (  0.000037  -0.000761   0.000053)
  13:       830.38    0.000001  ( -0.000763  -0.000017  -0.000025)
  14:       925.03    0.003637  ( -0.009171   0.007840   0.059089)
  15:       926.03    0.002722  (  0.005336  -0.001396  -0.051879)
  16:       967.18    0.000001  ( -0.000192  -0.000855   0.000075)
  17:       985.72    0.000288  ( -0.012173   0.011825   0.000205)
  18:       996.43    0.000000  ( -0.000136  -0.000122  -0.000007)
  19:      1040.89    3.874909  ( -1.460370  -1.319787  -0.019774)
  20:      1041.82    3.573054  (  1.270811  -1.399305  -0.006255)
  21:      1152.64    0.007026  ( -0.083701  -0.004423  -0.000852)
  22:      1173.47    0.000000  ( -0.000464  -0.000086   0.000062)
  23:      1173.91    0.000000  ( -0.000161   0.000370   0.000029)
  24:      1338.15    0.000000  ( -0.000056   0.000032  -0.000001)
  25:      1357.28    0.002306  (  0.047396   0.007687   0.000268)
  26:      1483.14    5.938730  (  1.447810   1.960084   0.025410)
  27:      1483.56    5.839921  (  1.927724  -1.457323  -0.003333)
  28:      1606.47    0.000000  (  0.000361   0.000273  -0.000080)
  29:      1607.32    0.000000  (  0.000285  -0.000283  -0.000129)
  30:      3093.76    0.392908  ( -0.513182  -0.359909  -0.004186)
  31:      3102.20    0.000015  ( -0.003248   0.002107   0.000019)
  32:      3105.15    0.000021  (  0.002333   0.003986   0.000116)
  33:      3118.55   54.150700  ( -6.599059   3.256241  -0.003641)
  34:      3121.25   53.571721  ( -3.163311  -6.599994  -0.072536)
  35:      3130.81    0.000004  (  0.001745   0.001001   0.000012)

--------------------------
THERMOCHEMISTRY AT 298.15K
--------------------------

Temperature         ... 298.15 K
Pressure            ... 1.00 atm
Total Mass          ... 78.11 AMU

Throughout the following assumptions are being made:
  (1) The electronic state is orbitally nondegenerate
  (2) There are no thermally accessible electronically excited states
  (3) Hindered rotations indicated by low frequency modes are not
      treated as such but are treated as vibrations and this may
      cause some error
  (4) All equations used are the standard statistical mechanics
      equations for an ideal gas
  (5) All vibrations are strictly harmonic

freq.     397.98  E(vib)   ...       0.20
freq.     398.82  E(vib)   ...       0.19
freq.     600.53  E(vib)   ...       0.10
freq.     600.89  E(vib)   ...       0.10
freq.     666.21  E(vib)   ...       0.08
freq.     695.24  E(vib)   ...       0.07
freq.     829.45  E(vib)   ...       0.04
freq.     830.38  E(vib)   ...       0.04
freq.     925.03  E(vib)   ...       0.03
freq.     926.03  E(vib)   ...       0.03
freq.     967.18  E(vib)   ...       0.03
freq.     985.72  E(vib)   ...       0.02
freq.     996.43  E(vib)   ...       0.02
freq.    1040.89  E(vib)   ...       0.02
freq.    1041.82  E(vib)   ...       0.02
freq.    1152.64  E(vib)   ...       0.01
freq.    1173.47  E(vib)   ...       0.01
freq.    1173.91  E(vib)   ...       0.01
freq.    1338.15  E(vib)   ...       0.01
freq.    1357.28  E(vib)   ...       0.01
freq.    1483.14  E(vib)   ...       0.00
freq.    1483.56  E(vib)   ...       0.00
freq.    1606.47  E(vib)   ...       0.00
freq.    1607.32  E(vib)   ...       0.00
freq.    3093.76  E(vib)   ...       0.00
freq.    3102.20  E(vib)   ...       0.00
freq.    3105.15  E(vib)   ...       0.00
freq.    3118.55  E(vib)   ...       0.00
freq.    3121.25  E(vib)   ...       0.00
freq.    3130.81  E(vib)   ...       0.00

------------
INNER ENERGY
------------

The inner energy is: U= E(el) + E(ZPE) + E(vib) + E(rot) + E(trans)
    E(el)   - is the total energy from the electronic structure calculation
              = E(kin-el) + E(nuc-el) + E(el-el) + E(nuc-nuc)
    E(ZPE)  - the the zero temperature vibrational energy from the frequency calculation
    E(vib)  - the the finite temperature correction to E(ZPE) due to population
              of excited vibrational states
    E(rot)  - is the rotational thermal energy
    E(trans)- is the translational thermal energy

Summary of contributions to the inner energy U:
Electronic energy                ...   -232.23568562 Eh
Zero point energy                ...      0.09784791 Eh      61.40 kcal/mol
Thermal vibrational correction   ...      0.00169473 Eh       1.06 kcal/mol
Thermal rotational correction    ...      0.00141627 Eh       0.89 kcal/mol
Thermal translational correction ...      0.00141627 Eh       0.89 kcal/mol
-----------------------------------------------------------------------
Total thermal energy                   -232.13331043 Eh

Summary of corrections to the electronic energy:
(perhaps to be used in another calculation)
Total thermal correction                  0.00452727 Eh       2.84 kcal/mol
Non-thermal (ZPE) correction              0.09784791 Eh      61.40 kcal/mol
-----------------------------------------------------------------------
Total correction                          0.10237518 Eh      64.24 kcal/mol

--------
ENTHALPY
--------

The enthalpy is H = U + kB*T
                kB is Boltzmann's constant
Total free energy                 ...   -232.13331043 Eh
Thermal Enthalpy correction       ...      0.00094421 Eh       0.59 kcal/mol
-----------------------------------------------------------------------
Total Enthalpy                    ...   -232.13236622 Eh

Note: Only C1 symmetry has been detected, increase convergence thresholds
      if your molecule has a higher symmetry. Symmetry factor of 1.0 is
      used for the rotational entropy correction.

Note: Rotational entropy computed according to Herzberg
Infrared and Raman Spectra, Chapter V,1, Van Nostrand Reinhold, 1945
Point Group:  C1, Symmetry Number:   1
Rotational constants in cm-1:     0.187435     0.187358     0.093698

Vibrational entropy computed according to the QRRHO of S. Grimme
Chem.Eur.J. 2012 18 9955

-------
ENTROPY
-------

The entropy contributions are T*S = T*(S(el)+S(vib)+S(rot)+S(trans))
     S(el)   - electronic entropy
     S(vib)  - vibrational entropy
     S(rot)  - rotational entropy
     S(trans)- translational entropy
The entropies will be listed as mutliplied by the temperature to get
units of energy

Electronic entropy                ...      0.00000000 Eh      0.00 kcal/mol
Vibrational entropy               ...      0.00228462 Eh      1.43 kcal/mol
Rotational entropy                ...      0.01220963 Eh      7.66 kcal/mol
Translational entropy             ...      0.01852142 Eh     11.62 kcal/mol
-----------------------------------------------------------------------
Final entropy term                ...      0.03301567 Eh     20.72 kcal/mol

In case the symmetry of your molecule has not been determined correctly
or in case you have a reason to use a different symmetry number we print
out the resulting rotational entropy values for sn=1,12 :
 --------------------------------------------------------
|  sn= 1 | S(rot)=       0.01220963 Eh      7.66 kcal/mol|
|  sn= 2 | S(rot)=       0.01155517 Eh      7.25 kcal/mol|
|  sn= 3 | S(rot)=       0.01117234 Eh      7.01 kcal/mol|
|  sn= 4 | S(rot)=       0.01090071 Eh      6.84 kcal/mol|
|  sn= 5 | S(rot)=       0.01069003 Eh      6.71 kcal/mol|
|  sn= 6 | S(rot)=       0.01051788 Eh      6.60 kcal/mol|
|  sn= 7 | S(rot)=       0.01037234 Eh      6.51 kcal/mol|
|  sn= 8 | S(rot)=       0.01024626 Eh      6.43 kcal/mol|
|  sn= 9 | S(rot)=       0.01013505 Eh      6.36 kcal/mol|
|  sn=10 | S(rot)=       0.01003557 Eh      6.30 kcal/mol|
|  sn=11 | S(rot)=       0.00994558 Eh      6.24 kcal/mol|
|  sn=12 | S(rot)=       0.00986343 Eh      6.19 kcal/mol|
 --------------------------------------------------------

-------------------
GIBBS FREE ENERGY
-------------------

The Gibbs free energy is G = H - T*S

Total enthalpy                    ...   -232.13236622 Eh
Total entropy correction          ...     -0.03301567 Eh    -20.72 kcal/mol
-----------------------------------------------------------------------
Final Gibbs free energy         ...   -232.16538189 Eh

For completeness - the Gibbs free energy minus the electronic energy
G-E(el)                           ...      0.07030372 Eh     44.12 kcal/mol

                             ****ORCA TERMINATED NORMALLY****
TOTAL RUN TIME: 0 days 0 hours 3 minutes 48 seconds 371 msec
