                         Program Version 4.2.0 -  RELEASE  -
|  1> !rks b3lyp def2-svp tightscf
|  2> !autoaux
|  3> !normalprint
|  4> !pal8
|  5>
|  6> %scf
|  7>   maxiter 500
|  8> end
|  9>
| 10> %tddft
| 11>   nroots 10
| 12>   dosoc true
| 13> end
| 14>
| 15> *xyzfile 0 1 benzene_0_1_bp86_6-31gpol.mecp.xyz
| 16>
| 17>                          ****END OF INPUT****

CARTESIAN COORDINATES (ANGSTROEM)
---------------------------------
  C      1.386755   -0.082271    0.026269
  C      0.468553   -1.160976    0.278905
  C     -0.931985   -1.024600   -0.021094
  C     -1.445717    0.227550   -0.289133
  C     -0.539545    1.326527    0.151127
  C      0.891094    1.177239   -0.240593
  H      2.455465   -0.310123   -0.082237
  H      0.869556   -2.158262    0.489170
  H     -1.534723   -1.931458   -0.161026
  H     -2.430987    0.391501   -0.738621
  H     -0.628758    1.489861    1.250237
  H      1.497642    1.989053   -0.656996

 Total Charge           Charge          ....    0
 Multiplicity           Mult            ....    1
 Number of Electrons    NEL             ....   42
 Basis Dimension        Dim             ....  114

ORBITAL ENERGIES
----------------

  NO   OCC          E(Eh)            E(eV)
   0   2.0000     -10.198879      -277.5256
   1   2.0000     -10.198775      -277.5228
   2   2.0000     -10.195925      -277.4452
   3   2.0000     -10.193668      -277.3838
   4   2.0000     -10.193104      -277.3685
   5   2.0000     -10.193039      -277.3667
   6   2.0000      -0.836704       -22.7679
   7   2.0000      -0.740035       -20.1374
   8   2.0000      -0.712497       -19.3880
   9   2.0000      -0.592674       -16.1275
  10   2.0000      -0.579995       -15.7825
  11   2.0000      -0.503045       -13.6886
  12   2.0000      -0.476698       -12.9716
  13   2.0000      -0.437012       -11.8917
  14   2.0000      -0.426711       -11.6114
  15   2.0000      -0.403283       -10.9739
  16   2.0000      -0.380020       -10.3409
  17   2.0000      -0.346977        -9.4417
  18   2.0000      -0.318546        -8.6681
  19   2.0000      -0.249539        -6.7903
  20   2.0000      -0.181492        -4.9386
  21   0.0000      -0.098321        -2.6754
  22   0.0000      -0.002605        -0.0709
  23   0.0000       0.068963         1.8766
  24   0.0000       0.074171         2.0183
  25   0.0000       0.098954         2.6927

MULLIKEN ATOMIC CHARGES
-----------------------
   0 C :   -0.003283
   1 C :    0.000975
   2 C :   -0.002573
   3 C :   -0.037747
   4 C :   -0.017935
   5 C :   -0.041639
   6 H :    0.002825
   7 H :   -0.009337
   8 H :    0.002223
   9 H :    0.020050
  10 H :    0.065163
  11 H :    0.021279
Sum of atomic charges:    0.0000000

LOEWDIN ATOMIC CHARGES
----------------------
   0 C :   -0.044238
   1 C :   -0.031563
   2 C :   -0.043849
   3 C :   -0.014870
   4 C :   -0.056254
   5 C :   -0.016026
   6 H :    0.030389
   7 H :    0.023287
   8 H :    0.030251
   9 H :    0.031831
  10 H :    0.058955
  11 H :    0.032086

  Mayer bond orders larger than 0.100000
B(  0-C ,  1-C ) :   1.3550 B(  0-C ,  5-C ) :   1.5088 B(  0-C ,  6-H ) :   0.9656
B(  1-C ,  2-C ) :   1.3549 B(  1-C ,  4-C ) :   0.2087 B(  1-C ,  7-H ) :   0.9712
B(  2-C ,  3-C ) :   1.5063 B(  2-C ,  8-H ) :   0.9661 B(  3-C ,  4-C ) :   1.3360
B(  3-C ,  9-H ) :   0.9723 B(  4-C ,  5-C ) :   1.3359 B(  4-C , 10-H ) :   0.9601
B(  5-C , 11-H ) :   0.9723

-----------------------------------------------------------------------------
  SOC CORRECTED ABSORPTION SPECTRUM VIA TRANSITION ELECTRIC DIPOLE MOMENTS*
-----------------------------------------------------------------------------
State   Energy  Wavelength   fosc         T2         TX        TY        TZ
        (cm-1)    (nm)                  (au**2)     (au)      (au)      (au)
-----------------------------------------------------------------------------
   1       0.0   206998792.4   0.000000000   0.00000   0.00000   0.00000   0.00000
   2       0.0   205716777.7   0.000000000   0.00000   0.00000   0.00000   0.00000
   3     437.0   22882.9   0.000000000   0.00000   0.00019   0.00049   0.00016
   4   19723.8    507.0   0.000000004   0.00000   0.00025   0.00010   0.00000
   5   19723.8    507.0   0.007190044   0.12001   0.32095   0.13020   0.00686
   6   19723.8    507.0   0.000000019   0.00000   0.00050   0.00023   0.00008
   7   20310.6    492.4   0.000007025   0.00011   0.00401   0.00989   0.00005
   8   25940.5    385.5   0.000000790   0.00001   0.00292   0.00121   0.00006
   9   27105.2    368.9   0.062111856   0.75439   0.80433   0.32735   0.01711
  10   27105.2    368.9   0.000000761   0.00001   0.00281   0.00116   0.00003
  11   27105.2    368.9   0.000000948   0.00001   0.00314   0.00129   0.00008
  12   33982.1    294.3   0.000000022   0.00000   0.00021   0.00041   0.00006
  13   33982.1    294.3   0.000000178   0.00000   0.00097   0.00087   0.00017
  14   33982.1    294.3   0.038951195   0.37735   0.22726   0.56431   0.08519
  15   35093.8    285.0   0.000013193   0.00012   0.01031   0.00417   0.00021
  16   36545.3    273.6   0.000001271   0.00001   0.00137   0.00309   0.00015
  17   36545.3    273.6   0.006713226   0.06047   0.09248   0.22763   0.01048
  18   36545.3    273.6   0.000000013   0.00000   0.00009   0.00033   0.00001
  19   41035.7    243.7   0.000001549   0.00001   0.00132   0.00326   0.00024
  20   41408.1    241.5   0.010851125   0.08627   0.27104   0.11306   0.00539
  21   41408.1    241.5   0.000000120   0.00000   0.00022   0.00094   0.00016
  22   41408.1    241.5   0.000000026   0.00000   0.00045   0.00003   0.00002
  23   43154.8    231.7   0.000000591   0.00000   0.00085   0.00194   0.00015
  24   43154.8    231.7   0.210810348   1.60819   0.47671   1.17186   0.08772
  25   43154.8    231.7   0.000000109   0.00000   0.00008   0.00090   0.00005
  26   45789.6    218.4   0.000003890   0.00003   0.00490   0.00198   0.00010
  27   47595.8    210.1   0.003872484   0.02679   0.05069   0.12482   0.09293
  28   47595.8    210.1   0.000010213   0.00007   0.00264   0.00640   0.00477
  29   47595.8    210.1   0.000010156   0.00007   0.00257   0.00640   0.00476
  30   48062.0    208.1   0.000000027   0.00000   0.00008   0.00016   0.00039
  31   49586.3    201.7   0.000000826   0.00001   0.00080   0.00200   0.00092
  32   49741.1    201.0   0.000005697   0.00004   0.00246   0.00560   0.00060
  33   49741.1    201.0   0.065715650   0.43494   0.24802   0.60761   0.06508
  34   49741.1    201.0   0.000000009   0.00000   0.00010   0.00023   0.00002
  35   50858.5    196.6   0.000000002   0.00000   0.00009   0.00005   0.00000
  36   50858.5    196.6   0.000009145   0.00006   0.00627   0.00445   0.00000
  37   50858.5    196.6   0.000000004   0.00000   0.00006   0.00015   0.00002
  38   53405.8    187.2   0.000000866   0.00001   0.00083   0.00200   0.00081
  39   54435.7    183.7   0.000003947   0.00002   0.00454   0.00181   0.00009
  40   56562.1    176.8   0.000008327   0.00005   0.00259   0.00646   0.00021

FINAL SINGLE POINT ENERGY      -231.778618818468

DIPOLE MOMENT
-------------
                                X             Y             Z
Electronic contribution:     -0.25171       0.62067      -0.17341
Nuclear contribution   :      0.34538      -0.85939       0.16882
                        -----------------------------------------
Total Dipole Moment    :      0.09367      -0.23872      -0.00459
                        -----------------------------------------
Magnitude (a.u.)       :      0.25648
Magnitude (Debye)      :      0.65192

Rotational constants in cm-1:     0.197288     0.169697     0.096512
Rotational constants in MHz :  5914.548078  5087.393068  2893.356668

                             ****ORCA TERMINATED NORMALLY****
TOTAL RUN TIME: 0 days 0 hours 0 minutes 36 seconds 593 msec
