                         Program Version 4.2.0 -  RELEASE  -
|  1> !uks bp86 6-31g* tightscf opt
|  2> !autoaux
|  3> !normalprint
|  4> !pal4
|  5>
|  6> %scf
|  7>   maxiter 500
|  8> end
|  9>
| 10> *xyzfile 0 1 benzene.xyz
| 11>
| 12>                          ****END OF INPUT****
 Total Charge           Charge          ....    0
 Multiplicity           Mult            ....    1
 Number of Electrons    NEL             ....   42
FINAL SINGLE POINT ENERGY      -232.234878064212
FINAL SINGLE POINT ENERGY      -232.235671139859
FINAL SINGLE POINT ENERGY      -232.235685322204
                    ***********************HURRAY********************

CARTESIAN COORDINATES (ANGSTROEM)
---------------------------------
  C      1.392214   -0.223483    0.005510
  C      0.509870   -1.315569   -0.008856
  C     -0.877466   -1.097910   -0.013889
  C     -1.382664    0.212515   -0.004507
  C     -0.500318    1.304570    0.009868
  C      0.887037    1.086920    0.014878
  H      2.474890   -0.393936    0.009536
  H      0.904025   -2.337891   -0.016204
  H     -1.565462   -1.950407   -0.025216
  H     -2.465351    0.382893   -0.008526
  H     -0.894438    2.326907    0.017327
  H      1.575013    1.939431    0.026088

 Multiplicity           Mult            ....    1
 Number of Electrons    NEL             ....   42
 Basis Dimension        Dim             ....   96

ORBITAL ENERGIES
----------------
                 SPIN UP ORBITALS
  NO   OCC          E(Eh)            E(eV)
   0   1.0000      -9.911287      -269.6998
   1   1.0000      -9.911238      -269.6985
   2   1.0000      -9.911103      -269.6948
   3   1.0000      -9.910953      -269.6907
   4   1.0000      -9.910856      -269.6881
   5   1.0000      -9.910801      -269.6866
   6   1.0000      -0.768217       -20.9043
   7   1.0000      -0.669066       -18.2062
   8   1.0000      -0.668992       -18.2042
   9   1.0000      -0.537770       -14.6335
  10   1.0000      -0.537744       -14.6327
  11   1.0000      -0.465513       -12.6673
  12   1.0000      -0.409244       -11.1361
  13   1.0000      -0.388969       -10.5844
  14   1.0000      -0.369740       -10.0611
  15   1.0000      -0.369596       -10.0572
  16   1.0000      -0.319983        -8.7072
  17   1.0000      -0.297450        -8.0940
  18   1.0000      -0.297433        -8.0936
  19   1.0000      -0.220749        -6.0069
  20   1.0000      -0.220610        -6.0031
  21   0.0000      -0.030392        -0.8270
  22   0.0000      -0.030040        -0.8174
  23   0.0000       0.061881         1.6839
  24   0.0000       0.113379         3.0852
  25   0.0000       0.115311         3.1378

                 SPIN DOWN ORBITALS
  NO   OCC          E(Eh)            E(eV)
   0   1.0000      -9.911287      -269.6998
   1   1.0000      -9.911238      -269.6985
   2   1.0000      -9.911103      -269.6948
   3   1.0000      -9.910953      -269.6907
   4   1.0000      -9.910856      -269.6881
   5   1.0000      -9.910801      -269.6866
   6   1.0000      -0.768217       -20.9043
   7   1.0000      -0.669066       -18.2062
   8   1.0000      -0.668992       -18.2042
   9   1.0000      -0.537770       -14.6335
  10   1.0000      -0.537744       -14.6327
  11   1.0000      -0.465513       -12.6673
  12   1.0000      -0.409244       -11.1361
  13   1.0000      -0.388969       -10.5844
  14   1.0000      -0.369740       -10.0611
  15   1.0000      -0.369596       -10.0572
  16   1.0000      -0.319983        -8.7072
  17   1.0000      -0.297450        -8.0940
  18   1.0000      -0.297433        -8.0936
  19   1.0000      -0.220749        -6.0069
  20   1.0000      -0.220610        -6.0031
  21   0.0000      -0.030392        -0.8270
  22   0.0000      -0.030040        -0.8174
  23   0.0000       0.061881         1.6839
  24   0.0000       0.113379         3.0852
  25   0.0000       0.115311         3.1378

MULLIKEN ATOMIC CHARGES AND SPIN POPULATIONS
--------------------------------------------
   0 C :   -0.141876    0.000000
   1 C :   -0.132868    0.000000
   2 C :   -0.137135    0.000000
   3 C :   -0.141872    0.000000
   4 C :   -0.132878    0.000000
   5 C :   -0.137125    0.000000
   6 H :    0.139789    0.000000
   7 H :    0.133818    0.000000
   8 H :    0.138268    0.000000
   9 H :    0.139793    0.000000
  10 H :    0.133816    0.000000
  11 H :    0.138270    0.000000
Sum of atomic charges         :   -0.0000000

LOEWDIN ATOMIC CHARGES AND SPIN POPULATIONS
-------------------------------------------
   0 C :   -0.135030    0.000000
   1 C :   -0.132842    0.000000
   2 C :   -0.134418    0.000000
   3 C :   -0.135035    0.000000
   4 C :   -0.132837    0.000000
   5 C :   -0.134420    0.000000
   6 H :    0.134565    0.000000
   7 H :    0.133098    0.000000
   8 H :    0.134627    0.000000
   9 H :    0.134567    0.000000
  10 H :    0.133097    0.000000
  11 H :    0.134629    0.000000

  Mayer bond orders larger than 0.100000
B(  0-C ,  1-C ) :   1.4541 B(  0-C ,  3-C ) :   0.1003 B(  0-C ,  5-C ) :   1.4542
B(  0-C ,  6-H ) :   0.9206 B(  1-C ,  2-C ) :   1.4540 B(  1-C ,  7-H ) :   0.9229
B(  2-C ,  3-C ) :   1.4541 B(  2-C ,  8-H ) :   0.9208 B(  3-C ,  4-C ) :   1.4541
B(  3-C ,  9-H ) :   0.9206 B(  4-C ,  5-C ) :   1.4540 B(  4-C , 10-H ) :   0.9229
B(  5-C , 11-H ) :   0.9208

FINAL SINGLE POINT ENERGY      -232.235685651970

DIPOLE MOMENT
-------------
                                X             Y             Z
Electronic contribution:      0.00000       0.00004      -0.00000
Nuclear contribution   :      0.00000      -0.00004       0.00000
                        -----------------------------------------
Total Dipole Moment    :      0.00001      -0.00000       0.00000
                        -----------------------------------------
Magnitude (a.u.)       :      0.00001
Magnitude (Debye)      :      0.00002

Rotational constants in cm-1:     0.187435     0.187358     0.093698
Rotational constants in MHz :  5619.161070  5616.840053  2809.000163

                             ****ORCA TERMINATED NORMALLY****
TOTAL RUN TIME: 0 days 0 hours 0 minutes 39 seconds 194 msec
