                         Program Version 4.2.0 -  RELEASE  -
|  1> !uks wb2plyp def2-svp tightscf
|  2> !autoaux
|  3> !normalprint
|  4> !pal4
|  5>
|  6> %scf
|  7>   maxiter 500
|  8> end
|  9>
| 10> %tddft
| 11>   nroots 10
| 12> end
| 13>
| 14> *xyzfile 0 1 benzene_0_1_bp86_6-31gpol.opt.xyz
| 15>
| 16>                          ****END OF INPUT****

CARTESIAN COORDINATES (ANGSTROEM)
---------------------------------
  C      1.392214   -0.223483    0.005510
  C      0.509870   -1.315569   -0.008856
  C     -0.877466   -1.097910   -0.013889
  C     -1.382664    0.212515   -0.004507
  C     -0.500318    1.304570    0.009868
  C      0.887037    1.086920    0.014878
  H      2.474890   -0.393936    0.009536
  H      0.904025   -2.337891   -0.016204
  H     -1.565462   -1.950407   -0.025216
  H     -2.465351    0.382893   -0.008526
  H     -0.894438    2.326907    0.017327
  H      1.575013    1.939431    0.026088

 Total Charge           Charge          ....    0
 Multiplicity           Mult            ....    1
 Number of Electrons    NEL             ....   42
 Basis Dimension        Dim             ....  114

ORBITAL ENERGIES
----------------
                 SPIN UP ORBITALS
  NO   OCC          E(Eh)            E(eV)
   0   1.0000     -10.703410      -291.2546
   1   1.0000     -10.703155      -291.2476
   2   1.0000     -10.703100      -291.2462
   3   1.0000     -10.702463      -291.2288
   4   1.0000     -10.702410      -291.2274
   5   1.0000     -10.702169      -291.2208
   6   1.0000      -1.047350       -28.4998
   7   1.0000      -0.925823       -25.1929
   8   1.0000      -0.925723       -25.1902
   9   1.0000      -0.761436       -20.7197
  10   1.0000      -0.761275       -20.7154
  11   1.0000      -0.669679       -18.2229
  12   1.0000      -0.599362       -16.3095
  13   1.0000      -0.588408       -16.0114
  14   1.0000      -0.556999       -15.1567
  15   1.0000      -0.556925       -15.1547
  16   1.0000      -0.493695       -13.4341
  17   1.0000      -0.470964       -12.8156
  18   1.0000      -0.470875       -12.8132
  19   1.0000      -0.346272        -9.4225
  20   1.0000      -0.346211        -9.4209
  21   0.0000       0.093716         2.5501
  22   0.0000       0.093795         2.5523
  23   0.0000       0.150560         4.0970
  24   0.0000       0.191410         5.2085
  25   0.0000       0.191935         5.2228

                 SPIN DOWN ORBITALS
  NO   OCC          E(Eh)            E(eV)
   0   1.0000     -10.703410      -291.2546
   1   1.0000     -10.703155      -291.2476
   2   1.0000     -10.703100      -291.2462
   3   1.0000     -10.702463      -291.2288
   4   1.0000     -10.702410      -291.2274
   5   1.0000     -10.702169      -291.2208
   6   1.0000      -1.047350       -28.4998
   7   1.0000      -0.925823       -25.1929
   8   1.0000      -0.925723       -25.1902
   9   1.0000      -0.761436       -20.7197
  10   1.0000      -0.761275       -20.7154
  11   1.0000      -0.669679       -18.2229
  12   1.0000      -0.599362       -16.3095
  13   1.0000      -0.588408       -16.0114
  14   1.0000      -0.556999       -15.1567
  15   1.0000      -0.556925       -15.1547
  16   1.0000      -0.493695       -13.4341
  17   1.0000      -0.470964       -12.8156
  18   1.0000      -0.470875       -12.8132
  19   1.0000      -0.346272        -9.4225
  20   1.0000      -0.346211        -9.4209
  21   0.0000       0.093716         2.5501
  22   0.0000       0.093795         2.5523
  23   0.0000       0.150560         4.0970
  24   0.0000       0.191410         5.2085
  25   0.0000       0.191935         5.2228

MULLIKEN ATOMIC CHARGES AND SPIN POPULATIONS
--------------------------------------------
   0 C :   -0.025662    0.000000
   1 C :   -0.025681    0.000000
   2 C :   -0.025621    0.000000
   3 C :   -0.025655    0.000000
   4 C :   -0.025681    0.000000
   5 C :   -0.025609    0.000000
   6 H :    0.025662    0.000000
   7 H :    0.025409    0.000000
   8 H :    0.025882    0.000000
   9 H :    0.025663    0.000000
  10 H :    0.025409    0.000000
  11 H :    0.025883    0.000000
Sum of atomic charges         :   -0.0000000

LOEWDIN ATOMIC CHARGES AND SPIN POPULATIONS
-------------------------------------------
   0 C :   -0.032058    0.000000
   1 C :   -0.032007    0.000000
   2 C :   -0.032178    0.000000
   3 C :   -0.032060    0.000000
   4 C :   -0.032004    0.000000
   5 C :   -0.032181    0.000000
   6 H :    0.032098    0.000000
   7 H :    0.032026    0.000000
   8 H :    0.032118    0.000000
   9 H :    0.032099    0.000000
  10 H :    0.032026    0.000000
  11 H :    0.032120    0.000000

  Mayer bond orders larger than 0.100000
B(  0-C ,  1-C ) :   1.4139 B(  0-C ,  5-C ) :   1.4132 B(  0-C ,  6-H ) :   0.9901
B(  1-C ,  2-C ) :   1.4135 B(  1-C ,  7-H ) :   0.9905 B(  2-C ,  3-C ) :   1.4131
B(  2-C ,  8-H ) :   0.9900 B(  3-C ,  4-C ) :   1.4140 B(  3-C ,  9-H ) :   0.9901
B(  4-C ,  5-C ) :   1.4134 B(  4-C , 10-H ) :   0.9905 B(  5-C , 11-H ) :   0.9900

MP2 TOTAL ENERGY:     -231.541206618 Eh

-----------------------------------------------------------------------------
         ABSORPTION SPECTRUM VIA TRANSITION ELECTRIC DIPOLE MOMENTS
-----------------------------------------------------------------------------
State   Energy    Wavelength  fosc         T2        TX        TY        TZ
        (cm-1)      (nm)                 (au**2)    (au)      (au)      (au)
-----------------------------------------------------------------------------
   1   32856.6    304.4   0.000000000   0.00000  -0.00000  -0.00000  -0.00000
   2   40184.1    248.9   0.000000000   0.00000  -0.00000  -0.00000  -0.00000
   3   40188.6    248.8   0.000000000   0.00000  -0.00000  -0.00000  -0.00000
   4   45319.4    220.7   0.000000000   0.00000   0.00000   0.00000   0.00000
   5   44919.9    222.6   0.000000040   0.00000  -0.00019  -0.00051  -0.00001
   6   53677.3    186.3   0.000000950   0.00001   0.00013  -0.00241  -0.00009
   7   63204.5    158.2   0.000000000   0.00000   0.00000   0.00000   0.00000
   8   63232.3    158.1   0.000000000   0.00000   0.00000   0.00000   0.00000
   9   66119.4    151.2   0.000000000   0.00000   0.00000   0.00000   0.00000
  10   66134.0    151.2   0.000000000   0.00000  -0.00000  -0.00000  -0.00000

FINAL SINGLE POINT ENERGY      -231.154239169688

DIPOLE MOMENT
-------------
                                X             Y             Z
Electronic contribution:     -0.00000       0.00003      -0.00000
Nuclear contribution   :      0.00000      -0.00004       0.00000
                        -----------------------------------------
Total Dipole Moment    :      0.00000      -0.00001       0.00000
                        -----------------------------------------
Magnitude (a.u.)       :      0.00001
Magnitude (Debye)      :      0.00002

Rotational constants in cm-1:     0.187435     0.187358     0.093698
Rotational constants in MHz :  5619.161070  5616.840053  2809.000163

                             ****ORCA TERMINATED NORMALLY****
TOTAL RUN TIME: 0 days 0 hours 3 minutes 27 seconds 189 msec
