                         Program Version 4.2.0 -  RELEASE  -
|  1> !uks b3lyp def2-qzvpp tightscf
|  2> !normalprint
|  3>
|  4> %paras
|  5>   rHH [19.952623149688797 16.43574799372698 13.538761800225439 11.152402139117903 9.1866653175426 7.567411809920191 6.233570019315557 5.134832907437553 4.229760619613384 3.4842175435383975 2.870084854071569 2.3641999865500756 1.9474830399087562 1.6042171611153242 1.32145576997553 1.088534267260644 0.8966678097917788 0.7386199822079362 0.6084298690766428 0.5011872336272722]
|  6> end
|  7>
|  8> %scf
|  9>   maxiter 500
| 10>   brokensym 1,1
| 11> end
| 12>
| 13> *int 0 1
| 14> H 0 0 0 0 0 0
| 15> H 1 0 0 {rHH} 0 0
| 16> *
| 17>
| 18>                          ****END OF INPUT****
 Total Charge           Charge          ....    0
 Multiplicity           Mult            ....    1
 Number of Electrons    NEL             ....    2
 Basis Dimension        Dim             ....   60

ORBITAL ENERGIES
----------------
                 SPIN UP ORBITALS
  NO   OCC          E(Eh)            E(eV)
   0   1.0000      -0.318920        -8.6782
   1   0.0000      -0.035334        -0.9615
   2   0.0000       0.147345         4.0095
   3   0.0000       0.260931         7.1003
   4   0.0000       0.397121        10.8062
   5   0.0000       0.397121        10.8062

                 SPIN DOWN ORBITALS
  NO   OCC          E(Eh)            E(eV)
   0   1.0000      -0.318920        -8.6782
   1   0.0000      -0.035334        -0.9615
   2   0.0000       0.147345         4.0095
   3   0.0000       0.260931         7.1003
   4   0.0000       0.397121        10.8062
   5   0.0000       0.397121        10.8062

MULLIKEN ATOMIC CHARGES AND SPIN POPULATIONS
--------------------------------------------
   0 H :    0.000000    1.000000
   1 H :    0.000000   -1.000000
Sum of atomic charges         :    0.0000000

LOEWDIN ATOMIC CHARGES AND SPIN POPULATIONS
-------------------------------------------
   0 H :    0.000000    1.000000
   1 H :    0.000000   -1.000000

FINAL SINGLE POINT ENERGY        -0.998035400966
FINAL SINGLE POINT ENERGY        -0.998035376341
FINAL SINGLE POINT ENERGY        -0.998035102957
FINAL SINGLE POINT ENERGY        -0.998031087149
FINAL SINGLE POINT ENERGY        -0.998032200673
FINAL SINGLE POINT ENERGY        -0.998037649968
FINAL SINGLE POINT ENERGY        -0.998037318743
FINAL SINGLE POINT ENERGY        -0.998044527013
FINAL SINGLE POINT ENERGY        -0.998108002853
FINAL SINGLE POINT ENERGY        -0.998452689831
FINAL SINGLE POINT ENERGY        -0.999805360246
FINAL SINGLE POINT ENERGY        -1.004302966595
FINAL SINGLE POINT ENERGY        -1.017138531809
FINAL SINGLE POINT ENERGY        -1.045858097109
FINAL SINGLE POINT ENERGY        -1.090030427376
FINAL SINGLE POINT ENERGY        -1.131594170806
FINAL SINGLE POINT ENERGY        -1.162199595002
FINAL SINGLE POINT ENERGY        -1.173867104359
FINAL SINGLE POINT ENERGY        -1.157766569380

CARTESIAN COORDINATES (ANGSTROEM)
---------------------------------
  H      0.000000    0.000000    0.000000
  H      0.501187    0.000000    0.000000

FINAL SINGLE POINT ENERGY        -1.104234755306

DIPOLE MOMENT
-------------
                                X             Y             Z
Electronic contribution:      0.00000       0.00000      -0.00000
Nuclear contribution   :      0.00000       0.00000       0.00000
                        -----------------------------------------
Total Dipole Moment    :      0.00000       0.00000      -0.00000
                        -----------------------------------------
Magnitude (a.u.)       :      0.00000
Magnitude (Debye)      :      0.00000

Rotational constants in cm-1:     0.000000   133.157724   133.157724
Rotational constants in MHz :     0.000000 3991968.149099 3991968.149099

                             ****ORCA TERMINATED NORMALLY****
TOTAL RUN TIME: 0 days 0 hours 0 minutes 39 seconds 204 msec
