                         Program Version 5.0.2 -  RELEASE  -
|  1> !uks vwn5 def2-svp tightscf
|  2>
|  3> %paras
|  4>   rHH = 0.5,3.0,21
|  5> end
|  6>
|  7> %scf
|  8>   maxiter 250
|  9> end
| 10>
| 11> *int 1 2
| 12> H 0 0 0 0 0 0
| 13> H 1 0 0 {rHH} 0 0
| 14> *
| 15>
| 16>                          ****END OF INPUT****
 Total Charge           Charge          ....    1
 Multiplicity           Mult            ....    2
 Number of Electrons    NEL             ....    1
 Basis Dimension        Dim             ....   10

ORBITAL ENERGIES
----------------
                 SPIN UP ORBITALS
  NO   OCC          E(Eh)            E(eV)
   0   1.0000      -1.121720       -30.5236
   1   0.0000      -0.265411        -7.2222
   2   0.0000      -0.108154        -2.9430
   3   0.0000       0.368319        10.0225
   4   0.0000       0.483923        13.1682
   5   0.0000       0.483923        13.1682

                 SPIN DOWN ORBITALS
  NO   OCC          E(Eh)            E(eV)

MULLIKEN ATOMIC CHARGES AND SPIN POPULATIONS
--------------------------------------------
   0 H :    0.500000    0.500000
   1 H :    0.500000    0.500000
Sum of atomic charges         :    1.0000000

LOEWDIN ATOMIC CHARGES AND SPIN POPULATIONS
-------------------------------------------
   0 H :    0.500000    0.500000
   1 H :    0.500000    0.500000

  Mayer bond orders larger than 0.100000
B(  0-H ,  1-H ) :   0.5000

FINAL SINGLE POINT ENERGY        -0.365150757437
FINAL SINGLE POINT ENERGY        -0.482031363831
FINAL SINGLE POINT ENERGY        -0.539594773953
FINAL SINGLE POINT ENERGY        -0.567434888379
FINAL SINGLE POINT ENERGY        -0.579500387654
FINAL SINGLE POINT ENERGY        -0.583003408038
FINAL SINGLE POINT ENERGY        -0.581869060537
FINAL SINGLE POINT ENERGY        -0.578292112206
FINAL SINGLE POINT ENERGY        -0.573557055679
FINAL SINGLE POINT ENERGY        -0.568472788662
FINAL SINGLE POINT ENERGY        -0.559120071718
FINAL SINGLE POINT ENERGY        -0.555283295351
FINAL SINGLE POINT ENERGY        -0.552074191572
FINAL SINGLE POINT ENERGY        -0.549462848416
FINAL SINGLE POINT ENERGY        -0.547394222903
FINAL SINGLE POINT ENERGY        -0.545810267935
FINAL SINGLE POINT ENERGY        -0.544651452147
FINAL SINGLE POINT ENERGY        -0.543858755216
FINAL SINGLE POINT ENERGY        -0.543379137038

CARTESIAN COORDINATES (ANGSTROEM)
---------------------------------
  H      0.000000    0.000000    0.000000
  H      3.000000    0.000000    0.000000

FINAL SINGLE POINT ENERGY        -0.543163819389

DIPOLE MOMENT
-------------
                                X             Y             Z
Electronic contribution:      0.00011      -0.00000      -0.00000
Nuclear contribution   :      0.00000       0.00000       0.00000
                        -----------------------------------------
Total Dipole Moment    :      0.00011      -0.00000      -0.00000
                        -----------------------------------------
Magnitude (a.u.)       :      0.00011
Magnitude (Debye)      :      0.00028

Rotational constants in cm-1:     0.000000     3.716412     3.716412
Rotational constants in MHz :     0.000000 111415.229208 111415.229208

                             ****ORCA TERMINATED NORMALLY****
TOTAL RUN TIME: 0 days 0 hours 0 minutes 13 seconds 118 msec
