                         Program Version 5.0.2 -  RELEASE  -
|  1> !uks bp86 def2-svp tightscf
|  2>
|  3> %paras
|  4>   rHH = 0.5,3.0,21
|  5> end
|  6>
|  7> %scf
|  8>   maxiter 250
|  9> end
| 10>
| 11> *int 1 2
| 12> H 0 0 0 0 0 0
| 13> H 1 0 0 {rHH} 0 0
| 14> *
| 15>
| 16>                          ****END OF INPUT****
 Total Charge           Charge          ....    1
 Multiplicity           Mult            ....    2
 Number of Electrons    NEL             ....    1
 Basis Dimension        Dim             ....   10

ORBITAL ENERGIES
----------------
                 SPIN UP ORBITALS
  NO   OCC          E(Eh)            E(eV)
   0   1.0000      -1.144317       -31.1385
   1   0.0000      -0.272721        -7.4211
   2   0.0000      -0.118771        -3.2319
   3   0.0000       0.346795         9.4368
   4   0.0000       0.471203        12.8221
   5   0.0000       0.471203        12.8221

                 SPIN DOWN ORBITALS
  NO   OCC          E(Eh)            E(eV)

MULLIKEN ATOMIC CHARGES AND SPIN POPULATIONS
--------------------------------------------
   0 H :    0.500000    0.500000
   1 H :    0.500000    0.500000
Sum of atomic charges         :    1.0000000

LOEWDIN ATOMIC CHARGES AND SPIN POPULATIONS
-------------------------------------------
   0 H :    0.500000    0.500000
   1 H :    0.500000    0.500000

  Mayer bond orders larger than 0.100000
B(  0-H ,  1-H ) :   0.5000

FINAL SINGLE POINT ENERGY        -0.396273446659
FINAL SINGLE POINT ENERGY        -0.511518650436
FINAL SINGLE POINT ENERGY        -0.567713846184
FINAL SINGLE POINT ENERGY        -0.594425244806
FINAL SINGLE POINT ENERGY        -0.605570716394
FINAL SINGLE POINT ENERGY        -0.608345583995
FINAL SINGLE POINT ENERGY        -0.606663037997
FINAL SINGLE POINT ENERGY        -0.602701955667
FINAL SINGLE POINT ENERGY        -0.597725702057
FINAL SINGLE POINT ENERGY        -0.592520858105
FINAL SINGLE POINT ENERGY        -0.583216214302
FINAL SINGLE POINT ENERGY        -0.579518880027
FINAL SINGLE POINT ENERGY        -0.576506902355
FINAL SINGLE POINT ENERGY        -0.574135213736
FINAL SINGLE POINT ENERGY        -0.572333265937
FINAL SINGLE POINT ENERGY        -0.571029347387
FINAL SINGLE POINT ENERGY        -0.570152128694
FINAL SINGLE POINT ENERGY        -0.569632577384
FINAL SINGLE POINT ENERGY        -0.569410630973

CARTESIAN COORDINATES (ANGSTROEM)
---------------------------------
  H      0.000000    0.000000    0.000000
  H      3.000000    0.000000    0.000000

FINAL SINGLE POINT ENERGY        -0.569433819593

DIPOLE MOMENT
-------------
                                X             Y             Z
Electronic contribution:      0.00029      -0.00000      -0.00000
Nuclear contribution   :      0.00000       0.00000       0.00000
                        -----------------------------------------
Total Dipole Moment    :      0.00029      -0.00000      -0.00000
                        -----------------------------------------
Magnitude (a.u.)       :      0.00029
Magnitude (Debye)      :      0.00075

Rotational constants in cm-1:     0.000000     3.716412     3.716412
Rotational constants in MHz :     0.000000 111415.229208 111415.229208

                             ****ORCA TERMINATED NORMALLY****
TOTAL RUN TIME: 0 days 0 hours 0 minutes 14 seconds 85 msec
