                         Program Version 5.0.2 -  RELEASE  -
|  1> !uks m06l def2-svp tightscf
|  2>
|  3> %paras
|  4>   rHH = 0.5,3.0,21
|  5> end
|  6>
|  7> %scf
|  8>   maxiter 250
|  9> end
| 10>
| 11> *int 1 2
| 12> H 0 0 0 0 0 0
| 13> H 1 0 0 {rHH} 0 0
| 14> *
| 15>
| 16>                          ****END OF INPUT****
 Total Charge           Charge          ....    1
 Multiplicity           Mult            ....    2
 Number of Electrons    NEL             ....    1
 Basis Dimension        Dim             ....   10

ORBITAL ENERGIES
----------------
                 SPIN UP ORBITALS
  NO   OCC          E(Eh)            E(eV)
   0   1.0000      -1.168043       -31.7841
   1   0.0000      -0.236158        -6.4262
   2   0.0000      -0.149545        -4.0693
   3   0.0000       0.700903        19.0725
   4   0.0000       1.555030        42.3145
   5   0.0000       1.555030        42.3145

                 SPIN DOWN ORBITALS
  NO   OCC          E(Eh)            E(eV)

MULLIKEN ATOMIC CHARGES AND SPIN POPULATIONS
--------------------------------------------
   0 H :    0.500004    0.499996
   1 H :    0.499996    0.500004
Sum of atomic charges         :    1.0000000

LOEWDIN ATOMIC CHARGES AND SPIN POPULATIONS
-------------------------------------------
   0 H :    0.500001    0.499999
   1 H :    0.499999    0.500001

  Mayer bond orders larger than 0.100000
B(  0-H ,  1-H ) :   0.5000

FINAL SINGLE POINT ENERGY        -0.406480607041
FINAL SINGLE POINT ENERGY        -0.520027216571
FINAL SINGLE POINT ENERGY        -0.574796122731
FINAL SINGLE POINT ENERGY        -0.600253750661
FINAL SINGLE POINT ENERGY        -0.610290783992
FINAL SINGLE POINT ENERGY        -0.612300241127
FINAL SINGLE POINT ENERGY        -0.609821702308
FINAL SINGLE POINT ENERGY        -0.604671566818
FINAL SINGLE POINT ENERGY        -0.598181660883
FINAL SINGLE POINT ENERGY        -0.591794506449
FINAL SINGLE POINT ENERGY        -0.580933889036
FINAL SINGLE POINT ENERGY        -0.576649863836
FINAL SINGLE POINT ENERGY        -0.573118790704
FINAL SINGLE POINT ENERGY        -0.570408362656
FINAL SINGLE POINT ENERGY        -0.568316822882
FINAL SINGLE POINT ENERGY        -0.566893003807
FINAL SINGLE POINT ENERGY        -0.565955960903
FINAL SINGLE POINT ENERGY        -0.565402655652
FINAL SINGLE POINT ENERGY        -0.565207673495

CARTESIAN COORDINATES (ANGSTROEM)
---------------------------------
  H      0.000000    0.000000    0.000000
  H      3.000000    0.000000    0.000000

FINAL SINGLE POINT ENERGY        -0.565299898106

DIPOLE MOMENT
-------------
                                X             Y             Z
Electronic contribution:     -0.00016      -0.00000       0.00000
Nuclear contribution   :      0.00000       0.00000       0.00000
                        -----------------------------------------
Total Dipole Moment    :     -0.00016      -0.00000       0.00000
                        -----------------------------------------
Magnitude (a.u.)       :      0.00016
Magnitude (Debye)      :      0.00041

Rotational constants in cm-1:     0.000000     3.716412     3.716412
Rotational constants in MHz :     0.000000 111415.229208 111415.229208

                             ****ORCA TERMINATED NORMALLY****
TOTAL RUN TIME: 0 days 0 hours 0 minutes 17 seconds 901 msec
