                         Program Version 5.0.2 -  RELEASE  -
|  1> !uks blyp def2-svp tightscf
|  2>
|  3> %paras
|  4>   rHH = 0.5,3.0,21
|  5> end
|  6>
|  7> %scf
|  8>   maxiter 250
|  9> end
| 10>
| 11> *int 1 2
| 12> H 0 0 0 0 0 0
| 13> H 1 0 0 {rHH} 0 0
| 14> *
| 15>
| 16>                          ****END OF INPUT****
 Total Charge           Charge          ....    1
 Multiplicity           Mult            ....    2
 Number of Electrons    NEL             ....    1
 Basis Dimension        Dim             ....   10

ORBITAL ENERGIES
----------------
                 SPIN UP ORBITALS
  NO   OCC          E(Eh)            E(eV)
   0   1.0000      -1.136134       -30.9158
   1   0.0000      -0.271370        -7.3844
   2   0.0000      -0.122573        -3.3354
   3   0.0000       0.352347         9.5878
   4   0.0000       0.486167        13.2293
   5   0.0000       0.486167        13.2293

                 SPIN DOWN ORBITALS
  NO   OCC          E(Eh)            E(eV)

MULLIKEN ATOMIC CHARGES AND SPIN POPULATIONS
--------------------------------------------
   0 H :    0.500000    0.500000
   1 H :    0.500000    0.500000
Sum of atomic charges         :    1.0000000

LOEWDIN ATOMIC CHARGES AND SPIN POPULATIONS
-------------------------------------------
   0 H :    0.500000    0.500000
   1 H :    0.500000    0.500000

  Mayer bond orders larger than 0.100000
B(  0-H ,  1-H ) :   0.5000

FINAL SINGLE POINT ENERGY        -0.393394573217
FINAL SINGLE POINT ENERGY        -0.508483833127
FINAL SINGLE POINT ENERGY        -0.564672999822
FINAL SINGLE POINT ENERGY        -0.591501775675
FINAL SINGLE POINT ENERGY        -0.602851849493
FINAL SINGLE POINT ENERGY        -0.605892039179
FINAL SINGLE POINT ENERGY        -0.604520191612
FINAL SINGLE POINT ENERGY        -0.600903353216
FINAL SINGLE POINT ENERGY        -0.596288791563
FINAL SINGLE POINT ENERGY        -0.591442359133
FINAL SINGLE POINT ENERGY        -0.582781221296
FINAL SINGLE POINT ENERGY        -0.579358374561
FINAL SINGLE POINT ENERGY        -0.576590630352
FINAL SINGLE POINT ENERGY        -0.574434809011
FINAL SINGLE POINT ENERGY        -0.572821579890
FINAL SINGLE POINT ENERGY        -0.571679272527
FINAL SINGLE POINT ENERGY        -0.570937985972
FINAL SINGLE POINT ENERGY        -0.570530058494
FINAL SINGLE POINT ENERGY        -0.570396984069

CARTESIAN COORDINATES (ANGSTROEM)
---------------------------------
  H      0.000000    0.000000    0.000000
  H      3.000000    0.000000    0.000000

FINAL SINGLE POINT ENERGY        -0.570489912825

DIPOLE MOMENT
-------------
                                X             Y             Z
Electronic contribution:      0.00024      -0.00000      -0.00000
Nuclear contribution   :      0.00000       0.00000       0.00000
                        -----------------------------------------
Total Dipole Moment    :      0.00024      -0.00000      -0.00000
                        -----------------------------------------
Magnitude (a.u.)       :      0.00024
Magnitude (Debye)      :      0.00060

Rotational constants in cm-1:     0.000000     3.716412     3.716412
Rotational constants in MHz :     0.000000 111415.229208 111415.229208

                             ****ORCA TERMINATED NORMALLY****
TOTAL RUN TIME: 0 days 0 hours 0 minutes 13 seconds 971 msec
