                         Program Version 5.0.2 -  RELEASE  -
|  1> !uks pbe def2-svp tightscf
|  2>
|  3> %paras
|  4>   rHH = 0.5,3.0,21
|  5> end
|  6>
|  7> %scf
|  8>   maxiter 250
|  9> end
| 10>
| 11> *int 1 2
| 12> H 0 0 0 0 0 0
| 13> H 1 0 0 {rHH} 0 0
| 14> *
| 15>
| 16>                          ****END OF INPUT****
 Total Charge           Charge          ....    1
 Multiplicity           Mult            ....    2
 Number of Electrons    NEL             ....    1
 Basis Dimension        Dim             ....   10

ORBITAL ENERGIES
----------------
                 SPIN UP ORBITALS
  NO   OCC          E(Eh)            E(eV)
   0   1.0000      -1.144196       -31.1352
   1   0.0000      -0.276932        -7.5357
   2   0.0000      -0.128396        -3.4938
   3   0.0000       0.350897         9.5484
   4   0.0000       0.476947        12.9784
   5   0.0000       0.476947        12.9784

                 SPIN DOWN ORBITALS
  NO   OCC          E(Eh)            E(eV)

MULLIKEN ATOMIC CHARGES AND SPIN POPULATIONS
--------------------------------------------
   0 H :    0.500000    0.500000
   1 H :    0.500000    0.500000
Sum of atomic charges         :    1.0000000

LOEWDIN ATOMIC CHARGES AND SPIN POPULATIONS
-------------------------------------------
   0 H :    0.500000    0.500000
   1 H :    0.500000    0.500000

  Mayer bond orders larger than 0.100000
B(  0-H ,  1-H ) :   0.5000

FINAL SINGLE POINT ENERGY        -0.395566054467
FINAL SINGLE POINT ENERGY        -0.510875066468
FINAL SINGLE POINT ENERGY        -0.567150361486
FINAL SINGLE POINT ENERGY        -0.593948040542
FINAL SINGLE POINT ENERGY        -0.605174368497
FINAL SINGLE POINT ENERGY        -0.608019740169
FINAL SINGLE POINT ENERGY        -0.606397352737
FINAL SINGLE POINT ENERGY        -0.602488099788
FINAL SINGLE POINT ENERGY        -0.597558352917
FINAL SINGLE POINT ENERGY        -0.592398138095
FINAL SINGLE POINT ENERGY        -0.583187365661
FINAL SINGLE POINT ENERGY        -0.579540600120
FINAL SINGLE POINT ENERGY        -0.576579967501
FINAL SINGLE POINT ENERGY        -0.574257403829
FINAL SINGLE POINT ENERGY        -0.572498896414
FINAL SINGLE POINT ENERGY        -0.571230279081
FINAL SINGLE POINT ENERGY        -0.570376358493
FINAL SINGLE POINT ENERGY        -0.569866763976
FINAL SINGLE POINT ENERGY        -0.569644507564

CARTESIAN COORDINATES (ANGSTROEM)
---------------------------------
  H      0.000000    0.000000    0.000000
  H      3.000000    0.000000    0.000000

FINAL SINGLE POINT ENERGY        -0.569656970585

DIPOLE MOMENT
-------------
                                X             Y             Z
Electronic contribution:      0.00014      -0.00000      -0.00000
Nuclear contribution   :      0.00000       0.00000       0.00000
                        -----------------------------------------
Total Dipole Moment    :      0.00014      -0.00000      -0.00000
                        -----------------------------------------
Magnitude (a.u.)       :      0.00014
Magnitude (Debye)      :      0.00037

Rotational constants in cm-1:     0.000000     3.716412     3.716412
Rotational constants in MHz :     0.000000 111415.229208 111415.229208

                             ****ORCA TERMINATED NORMALLY****
TOTAL RUN TIME: 0 days 0 hours 0 minutes 15 seconds 526 msec
