                         Program Version 5.0.2 -  RELEASE  -
|  1> !uks scanfunc def2-svp tightscf
|  2>
|  3> %paras
|  4>   rHH = 0.5,3.0,21
|  5> end
|  6>
|  7> %scf
|  8>   maxiter 250
|  9> end
| 10>
| 11> *int 1 2
| 12> H 0 0 0 0 0 0
| 13> H 1 0 0 {rHH} 0 0
| 14> *
| 15>
| 16>                          ****END OF INPUT****
 Total Charge           Charge          ....    1
 Multiplicity           Mult            ....    2
 Number of Electrons    NEL             ....    1
 Basis Dimension        Dim             ....   10

ORBITAL ENERGIES
----------------
                 SPIN UP ORBITALS
  NO   OCC          E(Eh)            E(eV)
   0   1.0000      -1.172136       -31.8954
   1   0.0000      -0.164293        -4.4706
   2   0.0000       0.103879         2.8267
   3   0.0000       0.492652        13.4058
   4   0.0000       0.492652        13.4058
   5   0.0000       0.585931        15.9440

                 SPIN DOWN ORBITALS
  NO   OCC          E(Eh)            E(eV)

MULLIKEN ATOMIC CHARGES AND SPIN POPULATIONS
--------------------------------------------
   0 H :    0.500000    0.500000
   1 H :    0.500000    0.500000
Sum of atomic charges         :    1.0000000

LOEWDIN ATOMIC CHARGES AND SPIN POPULATIONS
-------------------------------------------
   0 H :    0.500000    0.500000
   1 H :    0.500000    0.500000

  Mayer bond orders larger than 0.100000
B(  0-H ,  1-H ) :   0.5000

FINAL SINGLE POINT ENERGY        -0.400352929179
FINAL SINGLE POINT ENERGY        -0.514455155602
FINAL SINGLE POINT ENERGY        -0.569399048050
FINAL SINGLE POINT ENERGY        -0.594840362695
FINAL SINGLE POINT ENERGY        -0.604750982750
FINAL SINGLE POINT ENERGY        -0.606348824112
FINAL SINGLE POINT ENERGY        -0.603553493886
FINAL SINGLE POINT ENERGY        -0.598547320762
FINAL SINGLE POINT ENERGY        -0.592602602590
FINAL SINGLE POINT ENERGY        -0.586519681553
FINAL SINGLE POINT ENERGY        -0.575758379492
FINAL SINGLE POINT ENERGY        -0.571472078420
FINAL SINGLE POINT ENERGY        -0.567948801581
FINAL SINGLE POINT ENERGY        -0.565132486361
FINAL SINGLE POINT ENERGY        -0.562944257167
FINAL SINGLE POINT ENERGY        -0.561306049634
FINAL SINGLE POINT ENERGY        -0.560141354838
FINAL SINGLE POINT ENERGY        -0.559376875385
FINAL SINGLE POINT ENERGY        -0.558948078820

CARTESIAN COORDINATES (ANGSTROEM)
---------------------------------
  H      0.000000    0.000000    0.000000
  H      3.000000    0.000000    0.000000

FINAL SINGLE POINT ENERGY        -0.558797192572

DIPOLE MOMENT
-------------
                                X             Y             Z
Electronic contribution:     -0.00004      -0.00000      -0.00000
Nuclear contribution   :      0.00000       0.00000       0.00000
                        -----------------------------------------
Total Dipole Moment    :     -0.00004      -0.00000      -0.00000
                        -----------------------------------------
Magnitude (a.u.)       :      0.00004
Magnitude (Debye)      :      0.00010

Rotational constants in cm-1:     0.000000     3.716412     3.716412
Rotational constants in MHz :     0.000000 111415.229208 111415.229208

                             ****ORCA TERMINATED NORMALLY****
TOTAL RUN TIME: 0 days 0 hours 0 minutes 21 seconds 725 msec
