                         Program Version 5.0.2 -  RELEASE  -
|  1> !qm/xtb uhf def2-svp tightscf
|  2> !rijcosx autoaux
|  3> !normalprint
|  4> !pal8
|  5> !moread
|  6>
|  7> %moinp "Mo-HIPT-NH3_0_2_bp86_xtb_lanl2dz_6-31gpol.opt.gbw"
|  8>
|  9> %scf
| 10>   maxiter 500
| 11> end
| 12>
| 13> %basis
| 14>   newgto Mo "def2-tzvpp" end
| 15> end
| 16>
| 17> %casscf
| 18>   nel 3
| 19>   norb 2
| 20>   nroots 2
| 21>   rel
| 22>     gtensor true
| 23>     dosoc true
| 24>   end
| 25> end
| 26>
| 27> %qmmm
| 28>   qmatoms { 0 1 2 3 4 5 6 7 8 } end
| 29> end
| 30>
| 31> *xyzfile 0 2 Mo-HIPT-NH3_0_2_bp86_xtb_lanl2dz_6-31gpol.opt.xyz
| 32>
| 33>                          ****END OF INPUT****
FINAL SINGLE POINT ENERGY (L-QM2)     -343.804883627190
FINAL SINGLE POINT ENERGY (S-QM2)      -22.698057468960

CARTESIAN COORDINATES (ANGSTROEM)
---------------------------------
  Mo     7.140024   15.680833   13.524686
  N      5.269191   15.497441   14.232985
  N      8.339520   14.134221   13.829691
  N      8.018435   17.472348   13.329198
  N      7.584799   16.021034   15.576598
  N      6.657662   15.292887   11.316875
  H      7.146575   14.462554   10.950032
  H      6.943093   16.109447   10.755867
  H      5.644386   15.157180   11.185202
  H      5.183039   16.010892   15.114682
  H      4.428699   15.099709   13.808121
  H      8.425567   13.874865   14.830171
  H      8.796648   13.518607   13.146474
  H      8.619590   17.687008   14.129479
  H      7.974760   18.123968   12.543629
  H      6.722599   15.873838   16.110402
  H      8.317714   15.357413   15.884992
  H      7.916429   16.985867   15.670604

 Total Charge           Charge          ....    0
 Multiplicity           Mult            ....    2
 Number of Electrons    NEL             ....   61
 Basis Dimension        Dim             ....  186

ORBITAL ENERGIES
----------------

  NO   OCC          E(Eh)            E(eV)
   0   2.0000     -15.653787      -425.9612
   1   2.0000     -15.616121      -424.9363
   2   2.0000     -15.515502      -422.1983
   3   2.0000     -15.511989      -422.1027
   4   2.0000     -15.511043      -422.0769
   5   2.0000      -3.003916       -81.7407
   6   2.0000      -1.849926       -50.3390
   7   2.0000      -1.848551       -50.3016
   8   2.0000      -1.846230       -50.2385
   9   2.0000      -1.232565       -33.5398
  10   2.0000      -1.181951       -32.1625
  11   2.0000      -1.057937       -28.7879
  12   2.0000      -1.050825       -28.5944
  13   2.0000      -1.050138       -28.5757
  14   2.0000      -0.754144       -20.5213
  15   2.0000      -0.749597       -20.3976
  16   2.0000      -0.687653       -18.7120
  17   2.0000      -0.686596       -18.6832
  18   2.0000      -0.636811       -17.3285
  19   2.0000      -0.623618       -16.9695
  20   2.0000      -0.619678       -16.8623
  21   2.0000      -0.576202       -15.6793
  22   2.0000      -0.514718       -14.0062
  23   2.0000      -0.508420       -13.8348
  24   2.0000      -0.493709       -13.4345
  25   2.0000      -0.483325       -13.1519
  26   2.0000      -0.392397       -10.6777
  27   2.0000      -0.385666       -10.4945
  28   2.0000      -0.351681        -9.5697
  29   1.5000      -0.175466        -4.7747
  30   1.5000      -0.172703        -4.6995
  31   0.0000       0.047007         1.2791
  32   0.0000       0.079145         2.1536
  33   0.0000       0.092074         2.5055
  34   0.0000       0.093898         2.5551
  35   0.0000       0.181287         4.9331

MULLIKEN ATOMIC CHARGES AND SPIN DENSITIES
------------------------------------------
   0 Mo:    0.585946    0.959440
   1 N :   -0.536984    0.003099
   2 N :   -0.527970    0.003077
   3 N :   -0.535764    0.003221
   4 N :   -0.211653    0.002513
   5 N :   -0.309934    0.000720
   6 H :    0.174070    0.000698
   7 H :    0.174194    0.000482
   8 H :    0.174441    0.000698
   9 H :    0.059253    0.003036
  10 H :    0.143907    0.002350
  11 H :    0.059685    0.003852
  12 H :    0.142956    0.002507
  13 H :    0.061370    0.003162
  14 H :    0.144384    0.002266
  15 H :    0.133480    0.002764
  16 H :    0.135741    0.003344
  17 H :    0.132879    0.002771
Sum of atomic charges       :    0.0000000

LOEWDIN ATOMIC CHARGES AND SPIN DENSITIES
-----------------------------------------
   0 Mo:   -0.874307    0.937798
   1 N :   -0.108741    0.004950
   2 N :   -0.087157    0.004881
   3 N :   -0.105029    0.005019
   4 N :    0.195637    0.002745
   5 N :    0.117055    0.002877
   6 H :    0.104690    0.001986
   7 H :    0.105358    0.002023
   8 H :    0.105172    0.002014
   9 H :    0.029160    0.004083
  10 H :    0.067012    0.003644
  11 H :    0.032850    0.004697
  12 H :    0.068586    0.004056
  13 H :    0.029466    0.004092
  14 H :    0.066873    0.003795
  15 H :    0.083604    0.003694
  16 H :    0.086920    0.003986
  17 H :    0.082851    0.003660

  Mayer bond orders larger than 0.100000
B(  0-Mo,  1-N ) :   1.0429 B(  0-Mo,  2-N ) :   1.0626 B(  0-Mo,  3-N ) :   1.0519
B(  0-Mo,  4-N ) :   0.4284 B(  0-Mo,  5-N ) :   0.3739 B(  1-N ,  9-H ) :   0.9656
B(  1-N , 10-H ) :   0.9473 B(  2-N , 11-H ) :   0.9637 B(  2-N , 12-H ) :   0.9475
B(  3-N , 13-H ) :   0.9652 B(  3-N , 14-H ) :   0.9470 B(  4-N , 15-H ) :   0.9579
B(  4-N , 16-H ) :   0.9571 B(  4-N , 17-H ) :   0.9581 B(  5-N ,  6-H ) :   0.9584
B(  5-N ,  7-H ) :   0.9585 B(  5-N ,  8-H ) :   0.9581

FINAL SINGLE POINT ENERGY      -346.564400885635
FINAL SINGLE POINT ENERGY (QM/QM2)     -667.671227043865

DIPOLE MOMENT
-------------
                                X             Y             Z
Electronic contribution:     -1.49788      -0.33546      -6.10892
Nuclear contribution   :      1.24811       0.17030       5.02239
                        -----------------------------------------
Total Dipole Moment    :     -0.24977      -0.16516      -1.08653
                        -----------------------------------------
Magnitude (a.u.)       :      1.12703
Magnitude (Debye)      :      2.86469

Rotational constants in cm-1:     0.080957     0.059388     0.057655
Rotational constants in MHz :  2427.020512  1780.418242  1728.467187

                             ****ORCA TERMINATED NORMALLY****
TOTAL RUN TIME: 0 days 0 hours 3 minutes 6 seconds 328 msec
