                         Program Version 4.2.0 -  RELEASE  -
|  1> !uks wb2plyp def2-svp tightscf
|  2> !autoaux
|  3> !normalprint
|  4> !pal4
|  5>
|  6> %scf
|  7>   maxiter 500
|  8> end
|  9>
| 10> %tddft
| 11>   nroots 10
| 12> end
| 13>
| 14> *xyzfile 0 1 benzene_0_1_bp86_6-31gpol.eopt.xyz
| 15>
| 16>                          ****END OF INPUT****

CARTESIAN COORDINATES (ANGSTROEM)
---------------------------------
  C      1.419187   -0.225077   -0.018293
  C      0.515452   -1.343410    0.007805
  C     -0.895094   -1.122851    0.002116
  C     -1.410068    0.214988   -0.028149
  C     -0.506682    1.332507    0.027724
  C      0.903984    1.112046    0.017397
  H      2.497622   -0.403513   -0.088463
  H      0.919798   -2.362078    0.050517
  H     -1.585677   -1.975486    0.014708
  H     -2.485334    0.393381   -0.138303
  H     -0.910288    2.348987    0.115361
  H      1.594449    1.964546    0.043589

 Total Charge           Charge          ....    0
 Multiplicity           Mult            ....    1
 Number of Electrons    NEL             ....   42
 Basis Dimension        Dim             ....  114

ORBITAL ENERGIES
----------------
                 SPIN UP ORBITALS
  NO   OCC          E(Eh)            E(eV)
   0   1.0000     -10.711407      -291.4722
   1   1.0000     -10.711272      -291.4685
   2   1.0000     -10.710972      -291.4604
   3   1.0000     -10.710646      -291.4515
   4   1.0000     -10.710369      -291.4440
   5   1.0000     -10.710266      -291.4412
   6   1.0000      -1.032547       -28.0970
   7   1.0000      -0.919470       -25.0200
   8   1.0000      -0.917186       -24.9579
   9   1.0000      -0.758696       -20.6452
  10   1.0000      -0.757340       -20.6083
  11   1.0000      -0.662387       -18.0245
  12   1.0000      -0.606589       -16.5061
  13   1.0000      -0.578771       -15.7491
  14   1.0000      -0.555783       -15.1236
  15   1.0000      -0.553394       -15.0586
  16   1.0000      -0.487231       -13.2582
  17   1.0000      -0.470287       -12.7972
  18   1.0000      -0.469628       -12.7792
  19   1.0000      -0.342867        -9.3299
  20   1.0000      -0.339857        -9.2480
  21   0.0000       0.084901         2.3103
  22   0.0000       0.088214         2.4004
  23   0.0000       0.152336         4.1453
  24   0.0000       0.191534         5.2119
  25   0.0000       0.192298         5.2327

                 SPIN DOWN ORBITALS
  NO   OCC          E(Eh)            E(eV)
   0   1.0000     -10.711407      -291.4722
   1   1.0000     -10.711272      -291.4685
   2   1.0000     -10.710972      -291.4604
   3   1.0000     -10.710646      -291.4515
   4   1.0000     -10.710369      -291.4440
   5   1.0000     -10.710266      -291.4412
   6   1.0000      -1.032547       -28.0970
   7   1.0000      -0.919470       -25.0200
   8   1.0000      -0.917186       -24.9579
   9   1.0000      -0.758696       -20.6452
  10   1.0000      -0.757340       -20.6083
  11   1.0000      -0.662387       -18.0245
  12   1.0000      -0.606589       -16.5061
  13   1.0000      -0.578771       -15.7491
  14   1.0000      -0.555783       -15.1236
  15   1.0000      -0.553394       -15.0586
  16   1.0000      -0.487231       -13.2582
  17   1.0000      -0.470287       -12.7972
  18   1.0000      -0.469628       -12.7792
  19   1.0000      -0.342867        -9.3299
  20   1.0000      -0.339857        -9.2480
  21   0.0000       0.084901         2.3103
  22   0.0000       0.088214         2.4004
  23   0.0000       0.152336         4.1453
  24   0.0000       0.191534         5.2119
  25   0.0000       0.192298         5.2327

MULLIKEN ATOMIC CHARGES AND SPIN POPULATIONS
--------------------------------------------
   0 C :   -0.032814    0.000000
   1 C :   -0.032408    0.000000
   2 C :   -0.029720    0.000000
   3 C :   -0.033527    0.000000
   4 C :   -0.032899    0.000000
   5 C :   -0.029763    0.000000
   6 H :    0.031158    0.000000
   7 H :    0.031404    0.000000
   8 H :    0.032194    0.000000
   9 H :    0.032092    0.000000
  10 H :    0.032162    0.000000
  11 H :    0.032121    0.000000
Sum of atomic charges         :   -0.0000000

LOEWDIN ATOMIC CHARGES AND SPIN POPULATIONS
-------------------------------------------
   0 C :   -0.031392    0.000000
   1 C :   -0.032313    0.000000
   2 C :   -0.033088    0.000000
   3 C :   -0.031385    0.000000
   4 C :   -0.032367    0.000000
   5 C :   -0.033216    0.000000
   6 H :    0.031802    0.000000
   7 H :    0.032230    0.000000
   8 H :    0.032651    0.000000
   9 H :    0.031996    0.000000
  10 H :    0.032422    0.000000
  11 H :    0.032660    0.000000

  Mayer bond orders larger than 0.100000
B(  0-C ,  1-C ) :   1.4145 B(  0-C ,  5-C ) :   1.4125 B(  0-C ,  6-H ) :   0.9867
B(  1-C ,  2-C ) :   1.4154 B(  1-C ,  7-H ) :   0.9868 B(  2-C ,  3-C ) :   1.4128
B(  2-C ,  8-H ) :   0.9866 B(  3-C ,  4-C ) :   1.4139 B(  3-C ,  9-H ) :   0.9865
B(  4-C ,  5-C ) :   1.4159 B(  4-C , 10-H ) :   0.9866 B(  5-C , 11-H ) :   0.9866

MP2 TOTAL ENERGY:     -231.530755725 Eh

-----------------------------------------------------------------------------
         ABSORPTION SPECTRUM VIA TRANSITION ELECTRIC DIPOLE MOMENTS
-----------------------------------------------------------------------------
State   Energy    Wavelength  fosc         T2        TX        TY        TZ
        (cm-1)      (nm)                 (au**2)    (au)      (au)      (au)
-----------------------------------------------------------------------------
   1   30436.5    328.6   0.000000000   0.00000   0.00000  -0.00000  -0.00000
   2   38068.7    262.7   0.000000000   0.00000   0.00000  -0.00000   0.00000
   3   38140.9    262.2   0.000000000   0.00000  -0.00000   0.00000  -0.00000
   4   43373.8    230.6   0.000000000   0.00000  -0.00000   0.00000   0.00000
   5   42670.5    234.4   0.000001018   0.00001  -0.00114  -0.00256  -0.00003
   6   51654.3    193.6   0.002020634   0.01288  -0.10808  -0.03457  -0.00100
   7   59049.1    169.4   0.000000000   0.00000  -0.00000  -0.00000   0.00000
   8   59569.8    167.9   0.000000000   0.00000   0.00000   0.00000   0.00000
   9   63901.9    156.5   0.000000000   0.00000  -0.00000  -0.00000  -0.00000
  10   65395.9    152.9   0.000000000   0.00000   0.00000  -0.00000  -0.00000

FINAL SINGLE POINT ENERGY      -231.153270868648

DIPOLE MOMENT
-------------
                                X             Y             Z
Electronic contribution:     -0.00308       0.00143       0.00643
Nuclear contribution   :      0.00328      -0.00205      -0.00969
                        -----------------------------------------
Total Dipole Moment    :      0.00020      -0.00062      -0.00326
                        -----------------------------------------
Magnitude (a.u.)       :      0.00333
Magnitude (Debye)      :      0.00845

Rotational constants in cm-1:     0.181149     0.179999     0.090350
Rotational constants in MHz :  5430.705498  5396.234920  2708.627000

                             ****ORCA TERMINATED NORMALLY****
TOTAL RUN TIME: 0 days 0 hours 2 minutes 38 seconds 603 msec
