                         Program Version 4.2.0 -  RELEASE  -
|  1> !uks bp86 6-31g* tightscf opt
|  2> !autoaux
|  3> !normalprint
|  4> !pal8
|  5>
|  6> %scf
|  7>   maxiter 500
|  8> end
|  9>
| 10> %tddft
| 11>   nroots 10
| 12>   iroot 6
| 13> end
| 14>
| 15> *xyzfile 0 1 benzene_0_1_bp86_6-31gpol.opt.xyz
| 16>
| 17>                          ****END OF INPUT****
 Total Charge           Charge          ....    0
 Multiplicity           Mult            ....    1
 Number of Electrons    NEL             ....   42
 Basis Dimension        Dim             ....   96

ORBITAL ENERGIES
----------------
                 SPIN UP ORBITALS
  NO   OCC          E(Eh)            E(eV)
   0   1.0000      -9.911286      -269.6998
   1   1.0000      -9.911238      -269.6985
   2   1.0000      -9.911103      -269.6948
   3   1.0000      -9.910952      -269.6907
   4   1.0000      -9.910855      -269.6881
   5   1.0000      -9.910800      -269.6866
   6   1.0000      -0.768217       -20.9043
   7   1.0000      -0.669066       -18.2062
   8   1.0000      -0.668992       -18.2042
   9   1.0000      -0.537770       -14.6335
  10   1.0000      -0.537743       -14.6327
  11   1.0000      -0.465513       -12.6673
  12   1.0000      -0.409244       -11.1361
  13   1.0000      -0.388968       -10.5844
  14   1.0000      -0.369740       -10.0611
  15   1.0000      -0.369596       -10.0572
  16   1.0000      -0.319983        -8.7072
  17   1.0000      -0.297450        -8.0940
  18   1.0000      -0.297433        -8.0936
  19   1.0000      -0.220749        -6.0069
  20   1.0000      -0.220610        -6.0031
  21   0.0000      -0.030392        -0.8270
  22   0.0000      -0.030039        -0.8174
  23   0.0000       0.061881         1.6839
  24   0.0000       0.113379         3.0852
  25   0.0000       0.115311         3.1378

                 SPIN DOWN ORBITALS
  NO   OCC          E(Eh)            E(eV)
   0   1.0000      -9.911286      -269.6998
   1   1.0000      -9.911238      -269.6985
   2   1.0000      -9.911103      -269.6948
   3   1.0000      -9.910952      -269.6907
   4   1.0000      -9.910855      -269.6881
   5   1.0000      -9.910800      -269.6866
   6   1.0000      -0.768217       -20.9043
   7   1.0000      -0.669066       -18.2062
   8   1.0000      -0.668992       -18.2042
   9   1.0000      -0.537770       -14.6335
  10   1.0000      -0.537743       -14.6327
  11   1.0000      -0.465513       -12.6673
  12   1.0000      -0.409244       -11.1361
  13   1.0000      -0.388968       -10.5844
  14   1.0000      -0.369740       -10.0611
  15   1.0000      -0.369596       -10.0572
  16   1.0000      -0.319983        -8.7072
  17   1.0000      -0.297450        -8.0940
  18   1.0000      -0.297433        -8.0936
  19   1.0000      -0.220749        -6.0069
  20   1.0000      -0.220610        -6.0031
  21   0.0000      -0.030392        -0.8270
  22   0.0000      -0.030039        -0.8174
  23   0.0000       0.061881         1.6839
  24   0.0000       0.113379         3.0852
  25   0.0000       0.115311         3.1378

MULLIKEN ATOMIC CHARGES AND SPIN POPULATIONS
--------------------------------------------
   0 C :   -0.141875    0.000000
   1 C :   -0.132869    0.000000
   2 C :   -0.137138    0.000000
   3 C :   -0.141872    0.000000
   4 C :   -0.132877    0.000000
   5 C :   -0.137123    0.000000
   6 H :    0.139789    0.000000
   7 H :    0.133818    0.000000
   8 H :    0.138268    0.000000
   9 H :    0.139793    0.000000
  10 H :    0.133816    0.000000
  11 H :    0.138269    0.000000
Sum of atomic charges         :   -0.0000000

LOEWDIN ATOMIC CHARGES AND SPIN POPULATIONS
-------------------------------------------
   0 C :   -0.135029    0.000000
   1 C :   -0.132842    0.000000
   2 C :   -0.134420    0.000000
   3 C :   -0.135035    0.000000
   4 C :   -0.132837    0.000000
   5 C :   -0.134418    0.000000
   6 H :    0.134565    0.000000
   7 H :    0.133098    0.000000
   8 H :    0.134627    0.000000
   9 H :    0.134567    0.000000
  10 H :    0.133097    0.000000
  11 H :    0.134628    0.000000

  Mayer bond orders larger than 0.100000
B(  0-C ,  1-C ) :   1.4541 B(  0-C ,  3-C ) :   0.1003 B(  0-C ,  5-C ) :   1.4542
B(  0-C ,  6-H ) :   0.9206 B(  1-C ,  2-C ) :   1.4540 B(  1-C ,  7-H ) :   0.9229
B(  2-C ,  3-C ) :   1.4541 B(  2-C ,  8-H ) :   0.9208 B(  3-C ,  4-C ) :   1.4541
B(  3-C ,  9-H ) :   0.9206 B(  4-C ,  5-C ) :   1.4540 B(  4-C , 10-H ) :   0.9229
B(  5-C , 11-H ) :   0.9208

FINAL SINGLE POINT ENERGY      -231.976479286651
FINAL SINGLE POINT ENERGY      -231.979494414255
FINAL SINGLE POINT ENERGY      -231.991910869709
FINAL SINGLE POINT ENERGY      -232.001649734497
FINAL SINGLE POINT ENERGY      -231.979939851671
FINAL SINGLE POINT ENERGY      -231.980957354791
FINAL SINGLE POINT ENERGY      -231.984541838727
FINAL SINGLE POINT ENERGY      -232.001584622129
FINAL SINGLE POINT ENERGY      -232.002701785273
FINAL SINGLE POINT ENERGY      -231.983631960954
FINAL SINGLE POINT ENERGY      -232.002635429654
FINAL SINGLE POINT ENERGY      -232.003233415457
FINAL SINGLE POINT ENERGY      -232.003368878586
FINAL SINGLE POINT ENERGY      -232.003494978967
FINAL SINGLE POINT ENERGY      -232.003611323790
FINAL SINGLE POINT ENERGY      -231.984545962687
FINAL SINGLE POINT ENERGY      -231.987368366347
FINAL SINGLE POINT ENERGY      -232.002438876718
FINAL SINGLE POINT ENERGY      -232.003128639857

CARTESIAN COORDINATES (ANGSTROEM)
---------------------------------
  C      1.423534   -0.220509   -0.028402
  C      0.511869   -1.347677    0.015821
  C     -0.896596   -1.124017    0.001726
  C     -1.414194    0.210619   -0.037135
  C     -0.503209    1.336490    0.034479
  C      0.905390    1.113431    0.017170
  H      2.499968   -0.397823   -0.113546
  H      0.915260   -2.365084    0.073307
  H     -1.587965   -1.977242    0.017094
  H     -2.487188    0.388305   -0.159519
  H     -0.906057    2.351198    0.134328
  H      1.596538    1.966349    0.050688

-----------------------------------------------------------------------------
         ABSORPTION SPECTRUM VIA TRANSITION ELECTRIC DIPOLE MOMENTS
-----------------------------------------------------------------------------
State   Energy    Wavelength  fosc         T2        TX        TY        TZ
        (cm-1)      (nm)                 (au**2)    (au)      (au)      (au)
-----------------------------------------------------------------------------
   1   30692.9    325.8   0.000000000   0.00000   0.00000   0.00000   0.00000
   2   35222.2    283.9   0.000000000   0.00000  -0.00000   0.00000   0.00000
   3   35680.1    280.3   0.000000000   0.00000  -0.00000   0.00000  -0.00000
   4   38052.1    262.8   0.000000000   0.00000  -0.00000   0.00000  -0.00000
   5   40547.5    246.6   0.000018817   0.00015   0.00459  -0.01148  -0.00007
   6   49378.1    202.5   0.006994523   0.04663  -0.17482  -0.12677  -0.00054
   7   52958.4    188.8   0.000000000   0.00000  -0.00000   0.00000   0.00000
   8   54215.8    184.4   0.000000000   0.00000  -0.00000  -0.00000  -0.00000
   9   54621.4    183.1   0.000000000   0.00000   0.00000   0.00000  -0.00000
  10   55974.6    178.7   0.000000000   0.00000  -0.00000   0.00000  -0.00000

FINAL SINGLE POINT ENERGY      -232.003706540452

DIPOLE MOMENT
-------------
                                X             Y             Z
Electronic contribution:     -0.00323       0.00210       0.00557
Nuclear contribution   :      0.00328      -0.00205      -0.00969
                        -----------------------------------------
Total Dipole Moment    :      0.00005       0.00005      -0.00412
                        -----------------------------------------
Magnitude (a.u.)       :      0.00412
Magnitude (Debye)      :      0.01048

Rotational constants in cm-1:     0.181149     0.179999     0.090350
Rotational constants in MHz :  5430.705498  5396.234920  2708.627000

                             ****ORCA TERMINATED NORMALLY****
TOTAL RUN TIME: 0 days 0 hours 25 minutes 14 seconds 908 msec
