                         Program Version 4.2.0 -  RELEASE  -
|  1> !rhf def2-qzvpp tightscf
|  2> !normalprint
|  3>
|  4> %paras
|  5>   rHH [19.952623149688797 16.43574799372698 13.538761800225439 11.152402139117903 9.1866653175426 7.567411809920191 6.233570019315557 5.134832907437553 4.229760619613384 3.4842175435383975 2.870084854071569 2.3641999865500756 1.9474830399087562 1.6042171611153242 1.32145576997553 1.088534267260644 0.8966678097917788 0.7386199822079362 0.6084298690766428 0.5011872336272722]
|  6> end
|  7>
|  8> %scf
|  9>   maxiter 500
| 10> end
| 11>
| 12> *int 0 1
| 13> H 0 0 0 0 0 0
| 14> H 1 0 0 {rHH} 0 0
| 15> *
| 16>
| 17>                          ****END OF INPUT****
 Total Charge           Charge          ....    0
 Multiplicity           Mult            ....    1
 Number of Electrons    NEL             ....    2
 Basis Dimension        Dim             ....   60

ORBITAL ENERGIES
----------------

  NO   OCC          E(Eh)            E(eV)
   0   2.0000      -0.048285        -1.3139
   1   0.0000      -0.473459       -12.8835
   2   0.0000      -0.025935        -0.7057
   3   0.0000       0.162400         4.4191
   4   0.0000       0.162400         4.4191
   5   0.0000       0.162454         4.4206

MULLIKEN ATOMIC CHARGES
-----------------------
   0 H :    1.000000
   1 H :   -1.000000
Sum of atomic charges:    0.0000000

LOEWDIN ATOMIC CHARGES
----------------------
   0 H :    1.000000
   1 H :   -1.000000

FINAL SINGLE POINT ENERGY        -0.504102909129
FINAL SINGLE POINT ENERGY        -0.509779806932
FINAL SINGLE POINT ENERGY        -0.516673216393
FINAL SINGLE POINT ENERGY        -0.525045538178
FINAL SINGLE POINT ENERGY        -0.535217789938
FINAL SINGLE POINT ENERGY        -0.547587050015
FINAL SINGLE POINT ENERGY        -0.562748254262
FINAL SINGLE POINT ENERGY        -0.768682810828
FINAL SINGLE POINT ENERGY        -0.785137899663
FINAL SINGLE POINT ENERGY        -0.809141729581
FINAL SINGLE POINT ENERGY        -0.842111913378
FINAL SINGLE POINT ENERGY        -0.884022683792
FINAL SINGLE POINT ENERGY        -0.933137580503
FINAL SINGLE POINT ENERGY        -0.986278218546
FINAL SINGLE POINT ENERGY        -1.038973368871
FINAL SINGLE POINT ENERGY        -1.085647261213
FINAL SINGLE POINT ENERGY        -1.119704415597
FINAL SINGLE POINT ENERGY        -1.133573757165
FINAL SINGLE POINT ENERGY        -1.118730198710

CARTESIAN COORDINATES (ANGSTROEM)
---------------------------------
  H      0.000000    0.000000    0.000000
  H      0.501187    0.000000    0.000000

FINAL SINGLE POINT ENERGY        -1.065721951414

DIPOLE MOMENT
-------------
                                X             Y             Z
Electronic contribution:      0.00000       0.00000      -0.00000
Nuclear contribution   :      0.00000       0.00000       0.00000
                        -----------------------------------------
Total Dipole Moment    :      0.00000       0.00000      -0.00000
                        -----------------------------------------
Magnitude (a.u.)       :      0.00000
Magnitude (Debye)      :      0.00000

Rotational constants in cm-1:     0.000000   133.157724   133.157724
Rotational constants in MHz :     0.000000 3991968.149099 3991968.149099

                             ****ORCA TERMINATED NORMALLY****
TOTAL RUN TIME: 0 days 0 hours 0 minutes 47 seconds 503 msec
