                         Program Version 4.2.0 -  RELEASE  -
|  1> !rks b3lyp def2-qzvpp tightscf soscf
|  2> !normalprint
|  3>
|  4> %paras
|  5>   rHH [19.952623149688797 16.43574799372698 13.538761800225439 11.152402139117903 9.1866653175426 7.567411809920191 6.233570019315557 5.134832907437553 4.229760619613384 3.4842175435383975 2.870084854071569 2.3641999865500756 1.9474830399087562 1.6042171611153242 1.32145576997553 1.088534267260644 0.8966678097917788 0.7386199822079362 0.6084298690766428 0.5011872336272722]
|  6> end
|  7>
|  8> %scf
|  9>   maxiter 500
| 10> end
| 11>
| 12> *int 0 1
| 13> H 0 0 0 0 0 0
| 14> H 1 0 0 {rHH} 0 0
| 15> *
| 16>
| 17>                          ****END OF INPUT****
 Total Charge           Charge          ....    0
 Multiplicity           Mult            ....    1
 Number of Electrons    NEL             ....    2
 Basis Dimension        Dim             ....   60

ORBITAL ENERGIES
----------------

  NO   OCC          E(Eh)            E(eV)
   0   2.0000      -0.245836        -6.6895
   1   0.0000      -0.240531        -6.5452
   2   0.0000       0.152008         4.1364
   3   0.0000       0.152008         4.1364
   4   0.0000       0.407834        11.0977
   5   0.0000       0.407836        11.0978

MULLIKEN ATOMIC CHARGES
-----------------------
   0 H :    0.000000
   1 H :   -0.000000
Sum of atomic charges:   -0.0000000

LOEWDIN ATOMIC CHARGES
----------------------
   0 H :    0.000000
   1 H :   -0.000000

  Mayer bond orders larger than 0.100000
B(  0-H ,  1-H ) :   1.0000

FINAL SINGLE POINT ENERGY        -0.892253927590
FINAL SINGLE POINT ENERGY        -0.892821247852
FINAL SINGLE POINT ENERGY        -0.893509427975
FINAL SINGLE POINT ENERGY        -0.894346683836
FINAL SINGLE POINT ENERGY        -0.895357059538
FINAL SINGLE POINT ENERGY        -0.896568168248
FINAL SINGLE POINT ENERGY        -0.897815897127
FINAL SINGLE POINT ENERGY        -0.898508438528
FINAL SINGLE POINT ENERGY        -0.897157118384
FINAL SINGLE POINT ENERGY        -0.890887991013
FINAL SINGLE POINT ENERGY        -0.875342847143
FINAL SINGLE POINT ENERGY        -0.845046498090
FINAL SINGLE POINT ENERGY        -1.000963179121
FINAL SINGLE POINT ENERGY        -1.044483968103
FINAL SINGLE POINT ENERGY        -1.090030642964
FINAL SINGLE POINT ENERGY        -1.131594193114
FINAL SINGLE POINT ENERGY        -1.162199584874
FINAL SINGLE POINT ENERGY        -1.173867105695
FINAL SINGLE POINT ENERGY        -1.157766568558

CARTESIAN COORDINATES (ANGSTROEM)
---------------------------------
  H      0.000000    0.000000    0.000000
  H      0.501187    0.000000    0.000000

FINAL SINGLE POINT ENERGY        -1.104234754946

DIPOLE MOMENT
-------------
                                X             Y             Z
Electronic contribution:      0.00000       0.00000      -0.00000
Nuclear contribution   :      0.00000       0.00000       0.00000
                        -----------------------------------------
Total Dipole Moment    :      0.00000       0.00000      -0.00000
                        -----------------------------------------
Magnitude (a.u.)       :      0.00000
Magnitude (Debye)      :      0.00000

Rotational constants in cm-1:     0.000000   133.157724   133.157724
Rotational constants in MHz :     0.000000 3991968.149099 3991968.149099

                             ****ORCA TERMINATED NORMALLY****
TOTAL RUN TIME: 0 days 0 hours 0 minutes 31 seconds 608 msec
