                         Program Version 4.2.0 -  RELEASE  -
|  1> !uhf def2-svp tightscf ri-somf(1x)
|  2> !normalprint autoaux rijcosx
|  3> !pal8
|  4> !moread
|  5>
|  6> %moinp "Mo-TAEA-NH3_0_2_bp86_lanl2dz_6-31gpol.opt.uno"
|  7>
|  8> %scf
|  9>   maxiter 500
| 10> end
| 11>
| 12> %basis
| 13>   newgto Mo "def2-tzvpp" end
| 14> end
| 15>
| 16> %casscf
| 17>   mult 2
| 18>   nel 3
| 19>   norb 2
| 20>   nroots 2
| 21>   rel
| 22>     gtensor true
| 23>     dosoc true
| 24>   end
| 25> end
| 26>
| 27> *xyzfile 0 2 Mo-TAEA-NH3_0_2_bp86_lanl2dz_6-31gpol.opt.xyz
| 28>
| 29>                          ****END OF INPUT****

CARTESIAN COORDINATES (ANGSTROEM)
---------------------------------
  Mo     7.161049   15.739738   13.552686
  N      5.471131   15.197321   14.433170
  N      8.746513   14.519192   13.704041
  N      7.513929   17.690751   13.295368
  N      7.695166   16.198866   15.587176
  N      6.603922   15.231830   11.462641
  H      7.300179   14.609821   11.024603
  H      6.582185   16.069042   10.861573
  H      5.689405   14.766295   11.323835
  C      5.318330   15.472719   15.889445
  H      4.718837   14.691744   16.407905
  H      4.803931   16.445807   16.083145
  C      6.730529   15.489986   16.521529
  H      6.730688   15.959049   17.529273
  H      7.091922   14.450770   16.617908
  C      9.341792   14.392155   15.055764
  H      8.898896   13.552112   15.643655
  H     10.439166   14.205749   15.018849
  C      9.115827   15.727841   15.802263
  H      9.351319   15.638174   16.885554
  H      9.771732   16.497146   15.359352
  C      8.072414   18.413421   14.460314
  H      7.732135   19.471513   14.510628
  H      9.187754   18.441834   14.435862
  C      7.596196   17.702186   15.754170
  H      8.166575   18.034873   16.649563
  H      6.527762   17.934893   15.909817
  H      7.282313   18.335594   12.527952
  H      4.557056   14.915977   14.040522
  H      8.871089   13.632708   13.191849

 Total Charge           Charge          ....    0
 Multiplicity           Mult            ....    2
 Number of Electrons    NEL             ....  103
 Basis Dimension        Dim             ....  300

ORBITAL ENERGIES
----------------

  NO   OCC          E(Eh)            E(eV)
   0   2.0000     -15.603404      -424.5902
   1   2.0000     -15.574735      -423.8101
   2   2.0000     -15.481653      -421.2772
   3   2.0000     -15.474313      -421.0775
   4   2.0000     -15.473305      -421.0500
   5   2.0000     -11.253515      -306.2237
   6   2.0000     -11.251436      -306.1671
   7   2.0000     -11.250835      -306.1508
   8   2.0000     -11.236639      -305.7645
   9   2.0000     -11.233637      -305.6828
  10   2.0000     -11.232336      -305.6474
  11   2.0000      -2.962059       -80.6017
  12   2.0000      -1.809027       -49.2261
  13   2.0000      -1.807542       -49.1857
  14   2.0000      -1.804511       -49.1032
  15   2.0000      -1.209459       -32.9110
  16   2.0000      -1.171898       -31.8890
  17   2.0000      -1.083752       -29.4904
  18   2.0000      -1.082044       -29.4439
  19   2.0000      -1.066128       -29.0108
  20   2.0000      -0.944841       -25.7104
  21   2.0000      -0.942515       -25.6471
  22   2.0000      -0.873730       -23.7754
  23   2.0000      -0.784388       -21.3443
  24   2.0000      -0.782831       -21.3019
  25   2.0000      -0.745592       -20.2886
  26   2.0000      -0.669287       -18.2122
  27   2.0000      -0.668600       -18.1935
  28   2.0000      -0.639074       -17.3901
  29   2.0000      -0.637284       -17.3414
  30   2.0000      -0.635596       -17.2954
  31   2.0000      -0.610051       -16.6003
  32   2.0000      -0.605069       -16.4648
  33   2.0000      -0.571612       -15.5544
  34   2.0000      -0.541306       -14.7297
  35   2.0000      -0.536117       -14.5885
  36   2.0000      -0.529910       -14.4196
  37   2.0000      -0.511795       -13.9267
  38   2.0000      -0.498283       -13.5590
  39   2.0000      -0.494561       -13.4577
  40   2.0000      -0.487400       -13.2628
  41   2.0000      -0.475369       -12.9355
  42   2.0000      -0.472054       -12.8452
  43   2.0000      -0.452856       -12.3228
  44   2.0000      -0.426611       -11.6087
  45   2.0000      -0.423809       -11.5324
  46   2.0000      -0.405584       -11.0365
  47   2.0000      -0.330687        -8.9985
  48   2.0000      -0.327108        -8.9011
  49   2.0000      -0.295589        -8.0434
  50   1.5000      -0.136937        -3.7262
  51   1.5000      -0.132196        -3.5972
  52   0.0000       0.079323         2.1585
  53   0.0000       0.120097         3.2680
  54   0.0000       0.127479         3.4689
  55   0.0000       0.156135         4.2487
  56   0.0000       0.210995         5.7415

MULLIKEN ATOMIC CHARGES AND SPIN DENSITIES
------------------------------------------
   0 Mo:    0.853907    0.965326
   1 N :   -0.643415    0.001634
   2 N :   -0.636218    0.002547
   3 N :   -0.656473    0.002552
   4 N :   -0.783876    0.001113
   5 N :   -0.289601    0.001129
   6 H :    0.162000    0.001089
   7 H :    0.161330    0.001028
   8 H :    0.158295    0.001370
   9 C :    0.208814    0.002218
  10 H :    0.012000    0.000286
  11 H :    0.008937    0.000228
  12 C :    0.146879    0.001516
  13 H :    0.029262    0.000263
  14 H :    0.046164    0.000089
  15 C :    0.214607    0.001756
  16 H :    0.005612    0.000299
  17 H :    0.008897    0.000221
  18 C :    0.138692    0.001399
  19 H :    0.027697    0.000406
  20 H :    0.051580    0.000071
  21 C :    0.213184    0.001881
  22 H :    0.009212    0.000432
  23 H :    0.013805    0.000138
  24 C :    0.142528    0.001516
  25 H :    0.025398    0.000289
  26 H :    0.044208    0.000064
  27 H :    0.108199    0.003068
  28 H :    0.109462    0.003269
  29 H :    0.108913    0.002804
Sum of atomic charges       :   -0.0000000

LOEWDIN ATOMIC CHARGES AND SPIN DENSITIES
-----------------------------------------
   0 Mo:   -0.891680    0.938276
   1 N :   -0.097055    0.003800
   2 N :   -0.122720    0.004728
   3 N :   -0.116735    0.004859
   4 N :    0.009641    0.002457
   5 N :    0.146620    0.003706
   6 H :    0.101614    0.002874
   7 H :    0.101032    0.002870
   8 H :    0.099284    0.002737
   9 C :    0.075724    0.004353
  10 H :    0.004717    0.000217
  11 H :   -0.002777    0.000139
  12 C :    0.094790    0.002453
  13 H :    0.009166    0.000236
  14 H :    0.026092    0.000093
  15 C :    0.073812    0.004063
  16 H :   -0.003932    0.000172
  17 H :    0.002794    0.000163
  18 C :    0.093524    0.002360
  19 H :    0.008442    0.000339
  20 H :    0.028945    0.000116
  21 C :    0.075982    0.004082
  22 H :    0.005189    0.000294
  23 H :   -0.001300    0.000089
  24 C :    0.092377    0.002431
  25 H :    0.006848    0.000261
  26 H :    0.025953    0.000086
  27 H :    0.050328    0.003932
  28 H :    0.052628    0.004074
  29 H :    0.050697    0.003737

  Mayer bond orders larger than 0.100000
B(  0-Mo,  1-N ) :   0.9895 B(  0-Mo,  2-N ) :   0.9647 B(  0-Mo,  3-N ) :   0.9501
B(  0-Mo,  4-N ) :   0.3384 B(  0-Mo,  5-N ) :   0.3593 B(  1-N ,  9-C ) :   0.9752
B(  1-N , 28-H ) :   0.9385 B(  2-N , 15-C ) :   0.9802 B(  2-N , 29-H ) :   0.9372
B(  3-N , 21-C ) :   0.9786 B(  3-N , 27-H ) :   0.9421 B(  4-N , 12-C ) :   0.8562
B(  4-N , 18-C ) :   0.8510 B(  4-N , 24-C ) :   0.8522 B(  5-N ,  6-H ) :   0.9608
B(  5-N ,  7-H ) :   0.9612 B(  5-N ,  8-H ) :   0.9611 B(  9-C , 10-H ) :   0.9712
B(  9-C , 11-H ) :   0.9601 B(  9-C , 12-C ) :   1.0472 B( 12-C , 13-H ) :   0.9741
B( 12-C , 14-H ) :   0.9742 B( 15-C , 16-H ) :   0.9582 B( 15-C , 17-H ) :   0.9668
B( 15-C , 18-C ) :   1.0506 B( 18-C , 19-H ) :   0.9745 B( 18-C , 20-H ) :   0.9737
B( 21-C , 22-H ) :   0.9723 B( 21-C , 23-H ) :   0.9622 B( 21-C , 24-C ) :   1.0429
B( 24-C , 25-H ) :   0.9723 B( 24-C , 26-H ) :   0.9738

FINAL SINGLE POINT ENERGY      -577.107394315200

DIPOLE MOMENT
-------------
                                X             Y             Z
Electronic contribution:    -13.63292     -11.56974     -52.06790
Nuclear contribution   :     13.08235      11.34227      51.34275
                        -----------------------------------------
Total Dipole Moment    :     -0.55057      -0.22746      -0.72515
                        -----------------------------------------
Magnitude (a.u.)       :      0.93846
Magnitude (Debye)      :      2.38538

Rotational constants in cm-1:     0.029881     0.022964     0.022877
Rotational constants in MHz :   895.812205   688.437631   685.832232

                             ****ORCA TERMINATED NORMALLY****
TOTAL RUN TIME: 0 days 0 hours 3 minutes 22 seconds 715 msec
