                         Program Version 4.2.0 -  RELEASE  -
|  1> !uhf def2-svp tightscf
|  2> !normalprint autoaux rijcosx uno
|  3> !pal8
|  4> !moread
|  5>
|  6> %moinp "Mo-TAEA-NH3_0_2_bp86_lanl2dz_6-31gpol.opt.gbw"
|  7>
|  8> %scf
|  9>   maxiter 500
| 10> end
| 11>
| 12> %basis
| 13>   newgto Mo "def2-tzvpp" end
| 14> end
| 15>
| 16> *xyzfile 0 2 Mo-TAEA-NH3_0_2_bp86_lanl2dz_6-31gpol.opt.xyz
| 17>
| 18>                          ****END OF INPUT****

CARTESIAN COORDINATES (ANGSTROEM)
---------------------------------
  Mo     7.161049   15.739738   13.552686
  N      5.471131   15.197321   14.433170
  N      8.746513   14.519192   13.704041
  N      7.513929   17.690751   13.295368
  N      7.695166   16.198866   15.587176
  N      6.603922   15.231830   11.462641
  H      7.300179   14.609821   11.024603
  H      6.582185   16.069042   10.861573
  H      5.689405   14.766295   11.323835
  C      5.318330   15.472719   15.889445
  H      4.718837   14.691744   16.407905
  H      4.803931   16.445807   16.083145
  C      6.730529   15.489986   16.521529
  H      6.730688   15.959049   17.529273
  H      7.091922   14.450770   16.617908
  C      9.341792   14.392155   15.055764
  H      8.898896   13.552112   15.643655
  H     10.439166   14.205749   15.018849
  C      9.115827   15.727841   15.802263
  H      9.351319   15.638174   16.885554
  H      9.771732   16.497146   15.359352
  C      8.072414   18.413421   14.460314
  H      7.732135   19.471513   14.510628
  H      9.187754   18.441834   14.435862
  C      7.596196   17.702186   15.754170
  H      8.166575   18.034873   16.649563
  H      6.527762   17.934893   15.909817
  H      7.282313   18.335594   12.527952
  H      4.557056   14.915977   14.040522
  H      8.871089   13.632708   13.191849

 Total Charge           Charge          ....    0
 Multiplicity           Mult            ....    2
 Number of Electrons    NEL             ....  103
 Basis Dimension        Dim             ....  300

ORBITAL ENERGIES
----------------
                 SPIN UP ORBITALS
  NO   OCC          E(Eh)            E(eV)
   0   1.0000     -15.602722      -424.5717
   1   1.0000     -15.573942      -423.7885
   2   1.0000     -15.477901      -421.1751
   3   1.0000     -15.474976      -421.0955
   4   1.0000     -15.474831      -421.0916
   5   1.0000     -11.253138      -306.2134
   6   1.0000     -11.251689      -306.1740
   7   1.0000     -11.250818      -306.1503
   8   1.0000     -11.235632      -305.7371
   9   1.0000     -11.235343      -305.7292
  10   1.0000     -11.231997      -305.6382
  11   1.0000      -2.988264       -81.3148
  12   1.0000      -1.860603       -50.6296
  13   1.0000      -1.852929       -50.4208
  14   1.0000      -1.812602       -49.3234
  15   1.0000      -1.209340       -32.9078
  16   1.0000      -1.172411       -31.9029
  17   1.0000      -1.084522       -29.5113
  18   1.0000      -1.081188       -29.4206
  19   1.0000      -1.065391       -28.9908
  20   1.0000      -0.944505       -25.7013
  21   1.0000      -0.942753       -25.6536
  22   1.0000      -0.873623       -23.7725
  23   1.0000      -0.784646       -21.3513
  24   1.0000      -0.782810       -21.3013
  25   1.0000      -0.745568       -20.2879
  26   1.0000      -0.671844       -18.2818
  27   1.0000      -0.669382       -18.2148
  28   1.0000      -0.640309       -17.4237
  29   1.0000      -0.637547       -17.3485
  30   1.0000      -0.636102       -17.3092
  31   1.0000      -0.611929       -16.6514
  32   1.0000      -0.605529       -16.4773
  33   1.0000      -0.571273       -15.5451
  34   1.0000      -0.541752       -14.7418
  35   1.0000      -0.536180       -14.5902
  36   1.0000      -0.530517       -14.4361
  37   1.0000      -0.511887       -13.9292
  38   1.0000      -0.499780       -13.5997
  39   1.0000      -0.493544       -13.4300
  40   1.0000      -0.488207       -13.2848
  41   1.0000      -0.475666       -12.9435
  42   1.0000      -0.474087       -12.9006
  43   1.0000      -0.452980       -12.3262
  44   1.0000      -0.426805       -11.6140
  45   1.0000      -0.425923       -11.5899
  46   1.0000      -0.405622       -11.0375
  47   1.0000      -0.335608        -9.1323
  48   1.0000      -0.333411        -9.0726
  49   1.0000      -0.297018        -8.0823
  50   1.0000      -0.275923        -7.5082
  51   1.0000      -0.245169        -6.6714
  52   0.0000       0.078716         2.1420
  53   0.0000       0.119478         3.2512
  54   0.0000       0.128036         3.4840
  55   0.0000       0.155910         4.2425
  56   0.0000       0.208899         5.6844

                 SPIN DOWN ORBITALS
  NO   OCC          E(Eh)            E(eV)
   0   1.0000     -15.603680      -424.5977
   1   1.0000     -15.574941      -423.8157
   2   1.0000     -15.479194      -421.2103
   3   1.0000     -15.476556      -421.1385
   4   1.0000     -15.476546      -421.1382
   5   1.0000     -11.252823      -306.2049
   6   1.0000     -11.251497      -306.1688
   7   1.0000     -11.250789      -306.1495
   8   1.0000     -11.234957      -305.7187
   9   1.0000     -11.234880      -305.7166
  10   1.0000     -11.231944      -305.6367
  11   1.0000      -2.935368       -79.8754
  12   1.0000      -1.798776       -48.9472
  13   1.0000      -1.761505       -47.9330
  14   1.0000      -1.756481       -47.7963
  15   1.0000      -1.209458       -32.9110
  16   1.0000      -1.172784       -31.9131
  17   1.0000      -1.084318       -29.5058
  18   1.0000      -1.082191       -29.4479
  19   1.0000      -1.066769       -29.0283
  20   1.0000      -0.944429       -25.6992
  21   1.0000      -0.943257       -25.6673
  22   1.0000      -0.873914       -23.7804
  23   1.0000      -0.784116       -21.3369
  24   1.0000      -0.782963       -21.3055
  25   1.0000      -0.745622       -20.2894
  26   1.0000      -0.669513       -18.2184
  27   1.0000      -0.667657       -18.1679
  28   1.0000      -0.639369       -17.3981
  29   1.0000      -0.636406       -17.3175
  30   1.0000      -0.635090       -17.2817
  31   1.0000      -0.609567       -16.5872
  32   1.0000      -0.604905       -16.4603
  33   1.0000      -0.571519       -15.5518
  34   1.0000      -0.541428       -14.7330
  35   1.0000      -0.535480       -14.5711
  36   1.0000      -0.530244       -14.4287
  37   1.0000      -0.512281       -13.9399
  38   1.0000      -0.499693       -13.5973
  39   1.0000      -0.493191       -13.4204
  40   1.0000      -0.487289       -13.2598
  41   1.0000      -0.474245       -12.9048
  42   1.0000      -0.472006       -12.8439
  43   1.0000      -0.452698       -12.3185
  44   1.0000      -0.425283       -11.5725
  45   1.0000      -0.424478       -11.5506
  46   1.0000      -0.405481       -11.0337
  47   1.0000      -0.333431        -9.0731
  48   1.0000      -0.325348        -8.8532
  49   1.0000      -0.298365        -8.1189
  50   1.0000      -0.220793        -6.0081
  51   0.0000       0.079263         2.1568
  52   0.0000       0.119561         3.2534
  53   0.0000       0.128051         3.4845
  54   0.0000       0.156062         4.2467
  55   0.0000       0.191112         5.2004

MULLIKEN ATOMIC CHARGES AND SPIN POPULATIONS
--------------------------------------------
   0 Mo:    0.866613    1.090264
   1 N :   -0.626909   -0.029298
   2 N :   -0.647855   -0.040985
   3 N :   -0.658994   -0.035179
   4 N :   -0.790259   -0.022985
   5 N :   -0.295670   -0.022709
   6 H :    0.163084    0.006381
   7 H :    0.161155    0.005945
   8 H :    0.157983   -0.000021
   9 C :    0.208956    0.002582
  10 H :    0.008176   -0.000657
  11 H :    0.003949   -0.001113
  12 C :    0.153889    0.000141
  13 H :    0.025754   -0.000292
  14 H :    0.042396   -0.000200
  15 C :    0.210409    0.013740
  16 H :    0.007117   -0.000449
  17 H :    0.012236   -0.001894
  18 C :    0.144760    0.004193
  19 H :    0.028542   -0.000491
  20 H :    0.051737   -0.000270
  21 C :    0.214673    0.009509
  22 H :    0.010845   -0.000441
  23 H :    0.014322   -0.001440
  24 C :    0.139102    0.008228
  25 H :    0.026607    0.000001
  26 H :    0.044837   -0.000591
  27 H :    0.108395    0.008271
  28 H :    0.103008   -0.001472
  29 H :    0.111142    0.011233
Sum of atomic charges         :   -0.0000000

LOEWDIN ATOMIC CHARGES AND SPIN POPULATIONS
-------------------------------------------
   0 Mo:   -0.891054    1.027231
   1 N :   -0.090430   -0.021990
   2 N :   -0.125557   -0.020105
   3 N :   -0.116982   -0.018144
   4 N :    0.009334   -0.012605
   5 N :    0.145514   -0.008927
   6 H :    0.103431    0.006015
   7 H :    0.102218    0.005726
   8 H :    0.096579   -0.000625
   9 C :    0.071678    0.000931
  10 H :    0.003462   -0.000408
  11 H :   -0.004732   -0.000633
  12 C :    0.093160    0.000610
  13 H :    0.008073   -0.000145
  14 H :    0.024886   -0.000064
  15 C :    0.076335    0.012379
  16 H :   -0.003127   -0.000198
  17 H :    0.004215   -0.001023
  18 C :    0.094961    0.004254
  19 H :    0.008404   -0.000190
  20 H :    0.029536   -0.000120
  21 C :    0.077705    0.008841
  22 H :    0.005484   -0.000212
  23 H :   -0.000559   -0.000791
  24 C :    0.093450    0.007099
  25 H :    0.007571    0.000219
  26 H :    0.025987   -0.000173
  27 H :    0.050938    0.006216
  28 H :    0.046693   -0.001685
  29 H :    0.052825    0.008519

  Mayer bond orders larger than 0.100000
B(  0-Mo,  1-N ) :   1.0045 B(  0-Mo,  2-N ) :   0.9542 B(  0-Mo,  3-N ) :   0.9501
B(  0-Mo,  4-N ) :   0.3296 B(  0-Mo,  5-N ) :   0.3529 B(  1-N ,  9-C ) :   0.9833
B(  1-N , 28-H ) :   0.9377 B(  2-N , 15-C ) :   0.9798 B(  2-N , 29-H ) :   0.9342
B(  3-N , 21-C ) :   0.9775 B(  3-N , 27-H ) :   0.9414 B(  4-N , 12-C ) :   0.8537
B(  4-N , 18-C ) :   0.8482 B(  4-N , 24-C ) :   0.8536 B(  5-N ,  6-H ) :   0.9614
B(  5-N ,  7-H ) :   0.9610 B(  5-N ,  8-H ) :   0.9609 B(  9-C , 10-H ) :   0.9701
B(  9-C , 11-H ) :   0.9595 B(  9-C , 12-C ) :   1.0438 B( 12-C , 13-H ) :   0.9739
B( 12-C , 14-H ) :   0.9731 B( 15-C , 16-H ) :   0.9589 B( 15-C , 17-H ) :   0.9675
B( 15-C , 18-C ) :   1.0515 B( 18-C , 19-H ) :   0.9747 B( 18-C , 20-H ) :   0.9733
B( 21-C , 22-H ) :   0.9728 B( 21-C , 23-H ) :   0.9626 B( 21-C , 24-C ) :   1.0439
B( 24-C , 25-H ) :   0.9723 B( 24-C , 26-H ) :   0.9739

FINAL SINGLE POINT ENERGY      -577.115334926038

DIPOLE MOMENT
-------------
                                X             Y             Z
Electronic contribution:    -13.53570     -11.55386     -52.10662
Nuclear contribution   :     13.08235      11.34227      51.34275
                        -----------------------------------------
Total Dipole Moment    :     -0.45335      -0.21158      -0.76387
                        -----------------------------------------
Magnitude (a.u.)       :      0.91312
Magnitude (Debye)      :      2.32096

Rotational constants in cm-1:     0.029881     0.022964     0.022877
Rotational constants in MHz :   895.812205   688.437631   685.832232

                             ****ORCA TERMINATED NORMALLY****
TOTAL RUN TIME: 0 days 0 hours 2 minutes 29 seconds 931 msec
