                         Program Version 4.2.0 -  RELEASE  -
|  1> !uhf def2-svp tightscf ri-somf(1x)
|  2> !normalprint autoaux rijcosx
|  3> !pal8
|  4> !moread
|  5>
|  6> %moinp "Mo-TAEA-NH3_0_2_UHF_def2-tzvpp_def2-svp.rot.gbw"
|  7>
|  8> %scf
|  9>   maxiter 500
| 10> end
| 11>
| 12> %basis
| 13>   newgto Mo "def2-tzvpp" end
| 14> end
| 15>
| 16> %casscf
| 17>   mult 2
| 18>   nel 3
| 19>   norb 5
| 20>   nroots 2
| 21>   actorbs dorbs
| 22>   rel
| 23>     gtensor true
| 24>     dosoc true
| 25>   end
| 26> end
| 27>
| 28> *xyzfile 0 2 Mo-TAEA-NH3_0_2_bp86_lanl2dz_6-31gpol.opt.xyz
| 29>
| 30>                          ****END OF INPUT****

CARTESIAN COORDINATES (ANGSTROEM)
---------------------------------
  Mo     7.161049   15.739738   13.552686
  N      5.471131   15.197321   14.433170
  N      8.746513   14.519192   13.704041
  N      7.513929   17.690751   13.295368
  N      7.695166   16.198866   15.587176
  N      6.603922   15.231830   11.462641
  H      7.300179   14.609821   11.024603
  H      6.582185   16.069042   10.861573
  H      5.689405   14.766295   11.323835
  C      5.318330   15.472719   15.889445
  H      4.718837   14.691744   16.407905
  H      4.803931   16.445807   16.083145
  C      6.730529   15.489986   16.521529
  H      6.730688   15.959049   17.529273
  H      7.091922   14.450770   16.617908
  C      9.341792   14.392155   15.055764
  H      8.898896   13.552112   15.643655
  H     10.439166   14.205749   15.018849
  C      9.115827   15.727841   15.802263
  H      9.351319   15.638174   16.885554
  H      9.771732   16.497146   15.359352
  C      8.072414   18.413421   14.460314
  H      7.732135   19.471513   14.510628
  H      9.187754   18.441834   14.435862
  C      7.596196   17.702186   15.754170
  H      8.166575   18.034873   16.649563
  H      6.527762   17.934893   15.909817
  H      7.282313   18.335594   12.527952
  H      4.557056   14.915977   14.040522
  H      8.871089   13.632708   13.191849

 Total Charge           Charge          ....    0
 Multiplicity           Mult            ....    2
 Number of Electrons    NEL             ....  103
 Basis Dimension        Dim             ....  300

ORBITAL ENERGIES
----------------

  NO   OCC          E(Eh)            E(eV)
   0   2.0000     -15.602405      -424.5630
   1   2.0000     -15.575693      -423.8362
   2   2.0000     -15.482172      -421.2913
   3   2.0000     -15.474973      -421.0954
   4   2.0000     -15.474033      -421.0699
   5   2.0000     -11.254135      -306.2406
   6   2.0000     -11.252115      -306.1856
   7   2.0000     -11.251504      -306.1690
   8   2.0000     -11.236976      -305.7737
   9   2.0000     -11.234152      -305.6968
  10   2.0000     -11.232828      -305.6608
  11   2.0000      -2.965067       -80.6836
  12   2.0000      -1.811705       -49.2990
  13   2.0000      -1.810210       -49.2583
  14   2.0000      -1.807091       -49.1735
  15   2.0000      -1.210406       -32.9368
  16   2.0000      -1.170534       -31.8518
  17   2.0000      -1.084307       -29.5055
  18   2.0000      -1.082726       -29.4625
  19   2.0000      -1.066749       -29.0277
  20   2.0000      -0.945420       -25.7262
  21   2.0000      -0.943169       -25.6649
  22   2.0000      -0.874328       -23.7917
  23   2.0000      -0.784907       -21.3584
  24   2.0000      -0.783426       -21.3181
  25   2.0000      -0.746303       -20.3079
  26   2.0000      -0.667962       -18.1762
  27   2.0000      -0.667273       -18.1574
  28   2.0000      -0.639740       -17.4082
  29   2.0000      -0.637946       -17.3594
  30   2.0000      -0.636285       -17.3142
  31   2.0000      -0.610656       -16.6168
  32   2.0000      -0.605656       -16.4807
  33   2.0000      -0.572207       -15.5706
  34   2.0000      -0.541716       -14.7408
  35   2.0000      -0.536066       -14.5871
  36   2.0000      -0.530542       -14.4368
  37   2.0000      -0.511766       -13.9259
  38   2.0000      -0.498823       -13.5737
  39   2.0000      -0.495076       -13.4717
  40   2.0000      -0.487942       -13.2776
  41   2.0000      -0.475943       -12.9511
  42   2.0000      -0.472651       -12.8615
  43   2.0000      -0.453667       -12.3449
  44   2.0000      -0.427469       -11.6320
  45   2.0000      -0.424696       -11.5566
  46   2.0000      -0.406621       -11.0647
  47   2.0000      -0.331325        -9.0158
  48   2.0000      -0.327603        -8.9145
  49   2.0000      -0.296064        -8.0563
  50   0.6311       0.254439         6.9236
  51   1.0692       0.114520         3.1162
  52   0.6258       0.211552         5.7566
  53   0.3472       0.607314        16.5258
  54   0.3268       0.616407        16.7733
  55   0.0000       0.081119         2.2074
  56   0.0000       0.121169         3.2972
  57   0.0000       0.127919         3.4809
  58   0.0000       0.155929         4.2430
  59   0.0000       0.211540         5.7563

MULLIKEN ATOMIC CHARGES AND SPIN DENSITIES
------------------------------------------
   0 Mo:    0.847030    0.967497
   1 N :   -0.642529    0.001600
   2 N :   -0.635373    0.002439
   3 N :   -0.656219    0.002267
   4 N :   -0.785215    0.000966
   5 N :   -0.287107    0.001167
   6 H :    0.161326    0.001081
   7 H :    0.160626    0.000893
   8 H :    0.157644    0.001336
   9 C :    0.208939    0.002031
  10 H :    0.012206    0.000272
  11 H :    0.009036    0.000215
  12 C :    0.146636    0.001410
  13 H :    0.029665    0.000239
  14 H :    0.046502    0.000090
  15 C :    0.214520    0.001627
  16 H :    0.005872    0.000296
  17 H :    0.009231    0.000204
  18 C :    0.138616    0.001289
  19 H :    0.028093    0.000380
  20 H :    0.051876    0.000077
  21 C :    0.213133    0.001805
  22 H :    0.009533    0.000411
  23 H :    0.014109    0.000132
  24 C :    0.142329    0.001405
  25 H :    0.025833    0.000275
  26 H :    0.044639    0.000066
  27 H :    0.109026    0.002787
  28 H :    0.110225    0.003093
  29 H :    0.109800    0.002650
Sum of atomic charges       :    0.0000000

LOEWDIN ATOMIC CHARGES AND SPIN DENSITIES
-----------------------------------------
   0 Mo:   -0.891858    0.941918
   1 N :   -0.096763    0.003694
   2 N :   -0.122257    0.004556
   3 N :   -0.116485    0.004514
   4 N :    0.008878    0.002314
   5 N :    0.146998    0.003456
   6 H :    0.100786    0.002764
   7 H :    0.100211    0.002679
   8 H :    0.098543    0.002627
   9 C :    0.075466    0.004018
  10 H :    0.004798    0.000201
  11 H :   -0.002762    0.000127
  12 C :    0.094755    0.002280
  13 H :    0.009352    0.000214
  14 H :    0.026204    0.000086
  15 C :    0.073597    0.003777
  16 H :   -0.003855    0.000165
  17 H :    0.002958    0.000149
  18 C :    0.093463    0.002206
  19 H :    0.008617    0.000317
  20 H :    0.029038    0.000107
  21 C :    0.075809    0.003831
  22 H :    0.005329    0.000279
  23 H :   -0.001186    0.000084
  24 C :    0.092380    0.002266
  25 H :    0.007049    0.000247
  26 H :    0.026103    0.000080
  27 H :    0.050742    0.003631
  28 H :    0.052991    0.003877
  29 H :    0.051100    0.003538

  Mayer bond orders larger than 0.100000
B(  0-Mo,  1-N ) :   0.9911 B(  0-Mo,  2-N ) :   0.9669 B(  0-Mo,  3-N ) :   0.9511
B(  0-Mo,  4-N ) :   0.3404 B(  0-Mo,  5-N ) :   0.3647 B(  1-N ,  9-C ) :   0.9746
B(  1-N , 28-H ) :   0.9384 B(  2-N , 15-C ) :   0.9796 B(  2-N , 29-H ) :   0.9371
B(  3-N , 21-C ) :   0.9779 B(  3-N , 27-H ) :   0.9420 B(  4-N , 12-C ) :   0.8553
B(  4-N , 18-C ) :   0.8501 B(  4-N , 24-C ) :   0.8513 B(  5-N ,  6-H ) :   0.9605
B(  5-N ,  7-H ) :   0.9609 B(  5-N ,  8-H ) :   0.9607 B(  9-C , 10-H ) :   0.9711
B(  9-C , 11-H ) :   0.9600 B(  9-C , 12-C ) :   1.0472 B( 12-C , 13-H ) :   0.9741
B( 12-C , 14-H ) :   0.9742 B( 15-C , 16-H ) :   0.9582 B( 15-C , 17-H ) :   0.9668
B( 15-C , 18-C ) :   1.0505 B( 18-C , 19-H ) :   0.9745 B( 18-C , 20-H ) :   0.9737
B( 21-C , 22-H ) :   0.9722 B( 21-C , 23-H ) :   0.9621 B( 21-C , 24-C ) :   1.0429
B( 24-C , 25-H ) :   0.9723 B( 24-C , 26-H ) :   0.9739

FINAL SINGLE POINT ENERGY      -577.118504331826

DIPOLE MOMENT
-------------
                                X             Y             Z
Electronic contribution:    -13.61678     -11.55760     -52.02531
Nuclear contribution   :     13.08235      11.34227      51.34275
                        -----------------------------------------
Total Dipole Moment    :     -0.53442      -0.21533      -0.68256
                        -----------------------------------------
Magnitude (a.u.)       :      0.89323
Magnitude (Debye)      :      2.27041

Rotational constants in cm-1:     0.029881     0.022964     0.022877
Rotational constants in MHz :   895.812205   688.437631   685.832232

                             ****ORCA TERMINATED NORMALLY****
TOTAL RUN TIME: 0 days 0 hours 5 minutes 12 seconds 29 msec
