                         Program Version 4.2.0 -  RELEASE  -
|  1> !uks bp86 lanl2dz tightscf opt
|  2> !normalprint uno autoaux
|  3> !pal8
|  4>
|  5> %scf
|  6>   maxiter 500
|  7> end
|  8>
|  9> %basis
| 10>   newgto H "6-31g*" end
| 11>   newgto N "6-31g*" end
| 12> end
| 13>
| 14> %geom
| 15>   constraints
| 16>     { c 1 c }
| 17>     { c 2 c }
| 18>     { c 3 c }
| 19>     { c 4 c }
| 20>     { c 5 c }
| 21>   end
| 22> end
| 23>
| 24> *xyzfile 0 2 Mo-TAEA-NH3.xyz
| 25>
| 26>                          ****END OF INPUT****
 Total Charge           Charge          ....    0
 Multiplicity           Mult            ....    2
 Number of Electrons    NEL             ....  103
FINAL SINGLE POINT ENERGY      -580.591846522485
FINAL SINGLE POINT ENERGY      -580.692636110472
FINAL SINGLE POINT ENERGY      -580.745933771286
FINAL SINGLE POINT ENERGY      -580.765691567470
FINAL SINGLE POINT ENERGY      -580.770938287359
FINAL SINGLE POINT ENERGY      -580.773872486399
FINAL SINGLE POINT ENERGY      -580.776397499064
FINAL SINGLE POINT ENERGY      -580.778636123560
FINAL SINGLE POINT ENERGY      -580.780538061384
FINAL SINGLE POINT ENERGY      -580.782223037064
FINAL SINGLE POINT ENERGY      -580.795233858261
FINAL SINGLE POINT ENERGY      -580.795316122905
FINAL SINGLE POINT ENERGY      -580.795387371430
FINAL SINGLE POINT ENERGY      -580.795446091047
FINAL SINGLE POINT ENERGY      -580.795494311094
FINAL SINGLE POINT ENERGY      -580.795531288979
FINAL SINGLE POINT ENERGY      -580.795555539554
FINAL SINGLE POINT ENERGY      -580.795566141285
FINAL SINGLE POINT ENERGY      -580.795569796512
                    ***********************HURRAY********************

CARTESIAN COORDINATES (ANGSTROEM)
---------------------------------
  Mo     7.161049   15.739738   13.552686
  N      5.471131   15.197321   14.433170
  N      8.746513   14.519192   13.704041
  N      7.513929   17.690751   13.295368
  N      7.695166   16.198866   15.587176
  N      6.603922   15.231830   11.462641
  H      7.300179   14.609821   11.024603
  H      6.582185   16.069042   10.861573
  H      5.689405   14.766295   11.323835
  C      5.318330   15.472719   15.889445
  H      4.718837   14.691744   16.407905
  H      4.803931   16.445807   16.083145
  C      6.730529   15.489986   16.521529
  H      6.730688   15.959049   17.529273
  H      7.091922   14.450770   16.617908
  C      9.341792   14.392155   15.055764
  H      8.898896   13.552112   15.643655
  H     10.439166   14.205749   15.018849
  C      9.115827   15.727841   15.802263
  H      9.351319   15.638174   16.885554
  H      9.771732   16.497146   15.359352
  C      8.072414   18.413421   14.460314
  H      7.732135   19.471513   14.510628
  H      9.187754   18.441834   14.435862
  C      7.596196   17.702186   15.754170
  H      8.166575   18.034873   16.649563
  H      6.527762   17.934893   15.909817
  H      7.282313   18.335594   12.527952
  H      4.557056   14.915977   14.040522
  H      8.871089   13.632708   13.191849

 Multiplicity           Mult            ....    2
 Number of Electrons    NEL             ....  103
 Basis Dimension        Dim             ....  182

ORBITAL ENERGIES
----------------
                 SPIN UP ORBITALS
  NO   OCC          E(Eh)            E(eV)
   0   1.0000     -14.045031      -382.1847
   1   1.0000     -14.042846      -382.1253
   2   1.0000     -13.957548      -379.8042
   3   1.0000     -13.955329      -379.7438
   4   1.0000     -13.955198      -379.7403
   5   1.0000      -9.929454      -270.1942
   6   1.0000      -9.927989      -270.1543
   7   1.0000      -9.926572      -270.1158
   8   1.0000      -9.918335      -269.8916
   9   1.0000      -9.917914      -269.8802
  10   1.0000      -9.913899      -269.7709
  11   1.0000      -2.262046       -61.5534
  12   1.0000      -1.348279       -36.6885
  13   1.0000      -1.320794       -35.9406
  14   1.0000      -1.313713       -35.7480
  15   1.0000      -0.839545       -22.8452
  16   1.0000      -0.814367       -22.1601
  17   1.0000      -0.744489       -20.2586
  18   1.0000      -0.741514       -20.1776
  19   1.0000      -0.728659       -19.8278
  20   1.0000      -0.641161       -17.4469
  21   1.0000      -0.639515       -17.4021
  22   1.0000      -0.586594       -15.9620
  23   1.0000      -0.523856       -14.2549
  24   1.0000      -0.521870       -14.2008
  25   1.0000      -0.492106       -13.3909
  26   1.0000      -0.448452       -12.2030
  27   1.0000      -0.446206       -12.1419
  28   1.0000      -0.425812       -11.5869
  29   1.0000      -0.423603       -11.5268
  30   1.0000      -0.416917       -11.3449
  31   1.0000      -0.402639       -10.9564
  32   1.0000      -0.397237       -10.8094
  33   1.0000      -0.368665       -10.0319
  34   1.0000      -0.346447        -9.4273
  35   1.0000      -0.339866        -9.2482
  36   1.0000      -0.336896        -9.1674
  37   1.0000      -0.315782        -8.5929
  38   1.0000      -0.309883        -8.4323
  39   1.0000      -0.308756        -8.4017
  40   1.0000      -0.305198        -8.3049
  41   1.0000      -0.293658        -7.9908
  42   1.0000      -0.292106        -7.9486
  43   1.0000      -0.271535        -7.3888
  44   1.0000      -0.254446        -6.9238
  45   1.0000      -0.252098        -6.8599
  46   1.0000      -0.223391        -6.0788
  47   1.0000      -0.165383        -4.5003
  48   1.0000      -0.161889        -4.4052
  49   1.0000      -0.133892        -3.6434
  50   1.0000      -0.087690        -2.3862
  51   1.0000      -0.064140        -1.7453
  52   0.0000      -0.019898        -0.5415
  53   0.0000       0.016960         0.4615
  54   0.0000       0.021391         0.5821
  55   0.0000       0.026631         0.7247
  56   0.0000       0.029728         0.8090

                 SPIN DOWN ORBITALS
  NO   OCC          E(Eh)            E(eV)
   0   1.0000     -14.045350      -382.1934
   1   1.0000     -14.043164      -382.1339
   2   1.0000     -13.957980      -379.8159
   3   1.0000     -13.955734      -379.7548
   4   1.0000     -13.955541      -379.7496
   5   1.0000      -9.929252      -270.1887
   6   1.0000      -9.927878      -270.1513
   7   1.0000      -9.926585      -270.1161
   8   1.0000      -9.917998      -269.8825
   9   1.0000      -9.917693      -269.8741
  10   1.0000      -9.913908      -269.7712
  11   1.0000      -2.241025       -60.9814
  12   1.0000      -1.318296       -35.8726
  13   1.0000      -1.308451       -35.6048
  14   1.0000      -1.288480       -35.0613
  15   1.0000      -0.839362       -22.8402
  16   1.0000      -0.814120       -22.1533
  17   1.0000      -0.743919       -20.2431
  18   1.0000      -0.741504       -20.1773
  19   1.0000      -0.728652       -19.8276
  20   1.0000      -0.640785       -17.4366
  21   1.0000      -0.639513       -17.4020
  22   1.0000      -0.586381       -15.9562
  23   1.0000      -0.523403       -14.2425
  24   1.0000      -0.521804       -14.1990
  25   1.0000      -0.491770       -13.3817
  26   1.0000      -0.446934       -12.1617
  27   1.0000      -0.446099       -12.1390
  28   1.0000      -0.425343       -11.5742
  29   1.0000      -0.423150       -11.5145
  30   1.0000      -0.416441       -11.3319
  31   1.0000      -0.401983       -10.9385
  32   1.0000      -0.396968       -10.8020
  33   1.0000      -0.368483       -10.0269
  34   1.0000      -0.346333        -9.4242
  35   1.0000      -0.339556        -9.2398
  36   1.0000      -0.335806        -9.1377
  37   1.0000      -0.315324        -8.5804
  38   1.0000      -0.309476        -8.4213
  39   1.0000      -0.308366        -8.3911
  40   1.0000      -0.303487        -8.2583
  41   1.0000      -0.292880        -7.9697
  42   1.0000      -0.291375        -7.9287
  43   1.0000      -0.269453        -7.3322
  44   1.0000      -0.251622        -6.8470
  45   1.0000      -0.249664        -6.7937
  46   1.0000      -0.222236        -6.0473
  47   1.0000      -0.163905        -4.4601
  48   1.0000      -0.159068        -4.3284
  49   1.0000      -0.133566        -3.6345
  50   1.0000      -0.051774        -1.4088
  51   0.0000      -0.037121        -1.0101
  52   0.0000      -0.018567        -0.5052
  53   0.0000       0.018008         0.4900
  54   0.0000       0.023737         0.6459
  55   0.0000       0.035305         0.9607

MULLIKEN ATOMIC CHARGES AND SPIN POPULATIONS
--------------------------------------------
   0 Mo:    0.856288    1.038252
   1 N :   -0.674213   -0.026132
   2 N :   -0.705127   -0.013786
   3 N :   -0.711403   -0.012879
   4 N :   -0.447534   -0.015530
   5 N :   -0.925036   -0.019427
   6 H :    0.365805    0.007206
   7 H :    0.365176    0.006664
   8 H :    0.349997   -0.002359
   9 C :   -0.258158   -0.000110
  10 H :    0.156688   -0.001183
  11 H :    0.149088   -0.001475
  12 C :   -0.183671   -0.002466
  13 H :    0.167958   -0.000503
  14 H :    0.194105   -0.000319
  15 C :   -0.260975    0.009289
  16 H :    0.152941    0.000466
  17 H :    0.161294   -0.002371
  18 C :   -0.187092    0.003380
  19 H :    0.162686   -0.001145
  20 H :    0.207556    0.000247
  21 C :   -0.259099    0.007100
  22 H :    0.152832   -0.000490
  23 H :    0.158927   -0.002251
  24 C :   -0.182436    0.010431
  25 H :    0.168912    0.000961
  26 H :    0.198998   -0.001065
  27 H :    0.277485    0.010052
  28 H :    0.266943   -0.002095
  29 H :    0.281066    0.011540
Sum of atomic charges         :   -0.0000000

LOEWDIN ATOMIC CHARGES AND SPIN POPULATIONS
-------------------------------------------
   0 Mo:   -0.232004    0.961702
   1 N :   -0.430863   -0.019672
   2 N :   -0.457382   -0.000720
   3 N :   -0.455274   -0.000425
   4 N :   -0.203918   -0.005798
   5 N :   -0.444421   -0.004081
   6 H :    0.267194    0.009582
   7 H :    0.266658    0.008987
   8 H :    0.252073   -0.001490
   9 C :   -0.140084   -0.000449
  10 H :    0.119444   -0.000700
  11 H :    0.106494   -0.001117
  12 C :   -0.128338   -0.000524
  13 H :    0.127563   -0.000124
  14 H :    0.145334   -0.000041
  15 C :   -0.130755    0.014224
  16 H :    0.107586   -0.000182
  17 H :    0.119570   -0.001421
  18 C :   -0.121937    0.004989
  19 H :    0.126091   -0.000626
  20 H :    0.150571   -0.000132
  21 C :   -0.126867    0.010488
  22 H :    0.119780   -0.000641
  23 H :    0.109597   -0.001108
  24 C :   -0.124073    0.009546
  25 H :    0.126935    0.000342
  26 H :    0.147544   -0.000307
  27 H :    0.236593    0.009606
  28 H :    0.227110   -0.001385
  29 H :    0.239780    0.011479

  Mayer bond orders larger than 0.100000
B(  0-Mo,  1-N ) :   0.9784 B(  0-Mo,  2-N ) :   0.8952 B(  0-Mo,  3-N ) :   0.8914
B(  0-Mo,  4-N ) :   0.4055 B(  0-Mo,  5-N ) :   0.3797 B(  1-N ,  9-C ) :   1.0331
B(  1-N , 28-H ) :   0.8332 B(  2-N , 15-C ) :   1.0468 B(  2-N , 29-H ) :   0.8352
B(  3-N , 21-C ) :   1.0504 B(  3-N , 27-H ) :   0.8362 B(  4-N , 12-C ) :   0.8636
B(  4-N , 18-C ) :   0.8743 B(  4-N , 24-C ) :   0.8750 B(  5-N ,  6-H ) :   0.8224
B(  5-N ,  7-H ) :   0.8223 B(  5-N ,  8-H ) :   0.8151 B(  9-C , 10-H ) :   0.8962
B(  9-C , 11-H ) :   0.8853 B(  9-C , 12-C ) :   0.9300 B( 12-C , 13-H ) :   0.8957
B( 12-C , 14-H ) :   0.9034 B( 15-C , 16-H ) :   0.8794 B( 15-C , 17-H ) :   0.8888
B( 15-C , 18-C ) :   0.9337 B( 18-C , 19-H ) :   0.8930 B( 18-C , 20-H ) :   0.8979
B( 21-C , 22-H ) :   0.8984 B( 21-C , 23-H ) :   0.8878 B( 21-C , 24-C ) :   0.9207
B( 24-C , 25-H ) :   0.8956 B( 24-C , 26-H ) :   0.8998

FINAL SINGLE POINT ENERGY      -580.795572619327

DIPOLE MOMENT
-------------
                                X             Y             Z
Electronic contribution:    -13.47711     -11.52952     -52.04300
Nuclear contribution   :     13.08235      11.34227      51.34275
                        -----------------------------------------
Total Dipole Moment    :     -0.39475      -0.18725      -0.70025
                        -----------------------------------------
Magnitude (a.u.)       :      0.82537
Magnitude (Debye)      :      2.09793

Rotational constants in cm-1:     0.029881     0.022964     0.022877
Rotational constants in MHz :   895.812205   688.437631   685.832232

                             ****ORCA TERMINATED NORMALLY****
TOTAL RUN TIME: 0 days 0 hours 14 minutes 11 seconds 313 msec
