                         Program Version 4.2.0 -  RELEASE  -
|  1> !uks b3lyp def2-svp tightscf ri-somf(1x)
|  2> !normalprint autoaux rijcosx
|  3> !pal8
|  4> !moread
|  5>
|  6> %moinp "Mo-TAEA-NH3_0_2_bp86_lanl2dz_6-31gpol.opt.gbw"
|  7>
|  8> %scf
|  9>   maxiter 500
| 10> end
| 11>
| 12> %basis
| 13>   newgto Mo "def2-tzvpp" end
| 14> end
| 15>
| 16> %eprnmr
| 17>   gtensor true
| 18>   dtensor ssandso
| 19>   dsoc cp
| 20>   dss direct
| 21> end
| 22>
| 23> *xyzfile 0 2 Mo-TAEA-NH3_0_2_bp86_lanl2dz_6-31gpol.opt.xyz
| 24>
| 25>                          ****END OF INPUT****

CARTESIAN COORDINATES (ANGSTROEM)
---------------------------------
  Mo     7.161049   15.739738   13.552686
  N      5.471131   15.197321   14.433170
  N      8.746513   14.519192   13.704041
  N      7.513929   17.690751   13.295368
  N      7.695166   16.198866   15.587176
  N      6.603922   15.231830   11.462641
  H      7.300179   14.609821   11.024603
  H      6.582185   16.069042   10.861573
  H      5.689405   14.766295   11.323835
  C      5.318330   15.472719   15.889445
  H      4.718837   14.691744   16.407905
  H      4.803931   16.445807   16.083145
  C      6.730529   15.489986   16.521529
  H      6.730688   15.959049   17.529273
  H      7.091922   14.450770   16.617908
  C      9.341792   14.392155   15.055764
  H      8.898896   13.552112   15.643655
  H     10.439166   14.205749   15.018849
  C      9.115827   15.727841   15.802263
  H      9.351319   15.638174   16.885554
  H      9.771732   16.497146   15.359352
  C      8.072414   18.413421   14.460314
  H      7.732135   19.471513   14.510628
  H      9.187754   18.441834   14.435862
  C      7.596196   17.702186   15.754170
  H      8.166575   18.034873   16.649563
  H      6.527762   17.934893   15.909817
  H      7.282313   18.335594   12.527952
  H      4.557056   14.915977   14.040522
  H      8.871089   13.632708   13.191849

 Total Charge           Charge          ....    0
 Multiplicity           Mult            ....    2
 Number of Electrons    NEL             ....  103
 Basis Dimension        Dim             ....  300

ORBITAL ENERGIES
----------------
                 SPIN UP ORBITALS
  NO   OCC          E(Eh)            E(eV)
   0   1.0000     -14.360223      -390.7615
   1   1.0000     -14.342152      -390.2698
   2   1.0000     -14.256433      -387.9373
   3   1.0000     -14.253902      -387.8684
   4   1.0000     -14.253893      -387.8681
   5   1.0000     -10.203510      -277.6516
   6   1.0000     -10.202307      -277.6189
   7   1.0000     -10.200996      -277.5832
   8   1.0000     -10.189840      -277.2796
   9   1.0000     -10.189502      -277.2704
  10   1.0000     -10.185704      -277.1671
  11   1.0000      -2.487107       -67.6776
  12   1.0000      -1.509793       -41.0835
  13   1.0000      -1.486479       -40.4492
  14   1.0000      -1.475675       -40.1551
  15   1.0000      -0.906803       -24.6754
  16   1.0000      -0.879385       -23.9293
  17   1.0000      -0.804463       -21.8905
  18   1.0000      -0.801652       -21.8141
  19   1.0000      -0.787893       -21.4397
  20   1.0000      -0.695187       -18.9170
  21   1.0000      -0.693638       -18.8748
  22   1.0000      -0.637955       -17.3596
  23   1.0000      -0.571296       -15.5457
  24   1.0000      -0.569413       -15.4945
  25   1.0000      -0.539330       -14.6759
  26   1.0000      -0.495819       -13.4919
  27   1.0000      -0.493759       -13.4359
  28   1.0000      -0.469684       -12.7808
  29   1.0000      -0.467417       -12.7191
  30   1.0000      -0.461562       -12.5598
  31   1.0000      -0.445312       -12.1176
  32   1.0000      -0.439772       -11.9668
  33   1.0000      -0.410258       -11.1637
  34   1.0000      -0.387251       -10.5376
  35   1.0000      -0.380222       -10.3464
  36   1.0000      -0.378573       -10.3015
  37   1.0000      -0.354828        -9.6554
  38   1.0000      -0.352823        -9.6008
  39   1.0000      -0.347766        -9.4632
  40   1.0000      -0.346690        -9.4339
  41   1.0000      -0.332628        -9.0513
  42   1.0000      -0.331184        -9.0120
  43   1.0000      -0.310735        -8.4555
  44   1.0000      -0.291113        -7.9216
  45   1.0000      -0.289208        -7.8698
  46   1.0000      -0.265607        -7.2275
  47   1.0000      -0.202615        -5.5134
  48   1.0000      -0.198746        -5.4082
  49   1.0000      -0.170141        -4.6298
  50   1.0000      -0.119893        -3.2625
  51   1.0000      -0.095632        -2.6023
  52   0.0000      -0.004911        -0.1336
  53   0.0000       0.040421         1.0999
  54   0.0000       0.046900         1.2762
  55   0.0000       0.052980         1.4417
  56   0.0000       0.062393         1.6978

                 SPIN DOWN ORBITALS
  NO   OCC          E(Eh)            E(eV)
   0   1.0000     -14.360524      -390.7697
   1   1.0000     -14.342472      -390.2785
   2   1.0000     -14.256854      -387.9487
   3   1.0000     -14.254353      -387.8807
   4   1.0000     -14.254297      -387.8791
   5   1.0000     -10.203293      -277.6457
   6   1.0000     -10.202176      -277.6153
   7   1.0000     -10.201004      -277.5834
   8   1.0000     -10.189434      -277.2686
   9   1.0000     -10.189223      -277.2629
  10   1.0000     -10.185718      -277.1675
  11   1.0000      -2.460880       -66.9639
  12   1.0000      -1.468824       -39.9687
  13   1.0000      -1.468393       -39.9570
  14   1.0000      -1.444716       -39.3127
  15   1.0000      -0.906630       -24.6707
  16   1.0000      -0.879116       -23.9220
  17   1.0000      -0.803849       -21.8739
  18   1.0000      -0.801683       -21.8149
  19   1.0000      -0.787903       -21.4399
  20   1.0000      -0.694803       -18.9065
  21   1.0000      -0.693631       -18.8747
  22   1.0000      -0.637788       -17.3551
  23   1.0000      -0.570823       -15.5329
  24   1.0000      -0.569360       -15.4931
  25   1.0000      -0.539039       -14.6680
  26   1.0000      -0.493870       -13.4389
  27   1.0000      -0.493639       -13.4326
  28   1.0000      -0.469082       -12.7644
  29   1.0000      -0.466745       -12.7008
  30   1.0000      -0.461149       -12.5485
  31   1.0000      -0.444392       -12.0925
  32   1.0000      -0.439416       -11.9571
  33   1.0000      -0.410093       -11.1592
  34   1.0000      -0.387136       -10.5345
  35   1.0000      -0.379810       -10.3352
  36   1.0000      -0.377434       -10.2705
  37   1.0000      -0.354317        -9.6415
  38   1.0000      -0.352189        -9.5835
  39   1.0000      -0.347218        -9.4483
  40   1.0000      -0.346223        -9.4212
  41   1.0000      -0.331899        -9.0314
  42   1.0000      -0.330360        -8.9896
  43   1.0000      -0.309293        -8.4163
  44   1.0000      -0.288604        -7.8533
  45   1.0000      -0.287359        -7.8194
  46   1.0000      -0.264796        -7.2055
  47   1.0000      -0.201643        -5.4870
  48   1.0000      -0.196012        -5.3337
  49   1.0000      -0.170058        -4.6275
  50   1.0000      -0.082573        -2.2469
  51   0.0000      -0.004446        -0.1210
  52   0.0000       0.007063         0.1922
  53   0.0000       0.040714         1.1079
  54   0.0000       0.047103         1.2817
  55   0.0000       0.053148         1.4462

MULLIKEN ATOMIC CHARGES AND SPIN POPULATIONS
--------------------------------------------
   0 Mo:    0.079159    1.021852
   1 N :   -0.330240   -0.018986
   2 N :   -0.356344   -0.019071
   3 N :   -0.361095   -0.015511
   4 N :   -0.451036   -0.014185
   5 N :   -0.110927   -0.016315
   6 H :    0.135887    0.007623
   7 H :    0.134865    0.006768
   8 H :    0.126306   -0.000957
   9 C :    0.167566    0.001040
  10 H :   -0.017012   -0.000910
  11 H :   -0.016622   -0.001067
  12 C :    0.155588   -0.000682
  13 H :   -0.010574   -0.000335
  14 H :    0.009905    0.000048
  15 C :    0.167521    0.010349
  16 H :   -0.013878    0.000840
  17 H :   -0.013974   -0.000659
  18 C :    0.151938    0.003873
  19 H :   -0.008765   -0.000295
  20 H :    0.018461    0.000039
  21 C :    0.175020    0.007393
  22 H :   -0.018807    0.000065
  23 H :   -0.005265   -0.000946
  24 C :    0.148750    0.009327
  25 H :   -0.008453    0.000669
  26 H :    0.010300   -0.000144
  27 H :    0.080145    0.009710
  28 H :    0.073962   -0.001509
  29 H :    0.087619    0.011976
Sum of atomic charges         :   -0.0000000

LOEWDIN ATOMIC CHARGES AND SPIN POPULATIONS
-------------------------------------------
   0 Mo:   -1.161713    0.969598
   1 N :    0.009463   -0.014406
   2 N :   -0.026954   -0.005459
   3 N :   -0.018375   -0.004490
   4 N :    0.086315   -0.006700
   5 N :    0.170536   -0.003894
   6 H :    0.100385    0.008598
   7 H :    0.099633    0.008071
   8 H :    0.089520   -0.001267
   9 C :    0.036242   -0.000566
  10 H :    0.010480   -0.000580
  11 H :    0.003145   -0.000733
  12 C :    0.061751   -0.000248
  13 H :    0.011426   -0.000161
  14 H :    0.030655    0.000039
  15 C :    0.042598    0.012473
  16 H :    0.004535    0.000269
  17 H :    0.011517   -0.000462
  18 C :    0.065752    0.004588
  19 H :    0.011469   -0.000148
  20 H :    0.035111   -0.000043
  21 C :    0.044831    0.009260
  22 H :    0.011277   -0.000062
  23 H :    0.007594   -0.000626
  24 C :    0.064578    0.008096
  25 H :    0.011703    0.000713
  26 H :    0.031871   -0.000021
  27 H :    0.052466    0.008786
  28 H :    0.046455   -0.001429
  29 H :    0.055734    0.010804

  Mayer bond orders larger than 0.100000
B(  0-Mo,  1-N ) :   1.2453 B(  0-Mo,  2-N ) :   1.1691 B(  0-Mo,  3-N ) :   1.1698
B(  0-Mo,  4-N ) :   0.5099 B(  0-Mo,  5-N ) :   0.5325 B(  1-N ,  9-C ) :   1.0333
B(  1-N , 28-H ) :   0.9066 B(  2-N , 15-C ) :   1.0374 B(  2-N , 29-H ) :   0.9052
B(  3-N , 21-C ) :   1.0459 B(  3-N , 27-H ) :   0.9118 B(  4-N , 12-C ) :   0.9104
B(  4-N , 18-C ) :   0.9157 B(  4-N , 24-C ) :   0.9180 B(  5-N ,  6-H ) :   0.9596
B(  5-N ,  7-H ) :   0.9593 B(  5-N ,  8-H ) :   0.9533 B(  9-C , 10-H ) :   0.9283
B(  9-C , 11-H ) :   0.9133 B(  9-C , 12-C ) :   1.0952 B( 12-C , 13-H ) :   0.9310
B( 12-C , 14-H ) :   0.9326 B( 15-C , 16-H ) :   0.9135 B( 15-C , 17-H ) :   0.9255
B( 15-C , 18-C ) :   1.1002 B( 18-C , 19-H ) :   0.9306 B( 18-C , 20-H ) :   0.9318
B( 21-C , 22-H ) :   0.9281 B( 21-C , 23-H ) :   0.9179 B( 21-C , 24-C ) :   1.0883
B( 24-C , 25-H ) :   0.9313 B( 24-C , 26-H ) :   0.9308

FINAL SINGLE POINT ENERGY      -580.755472519550

DIPOLE MOMENT
-------------
                                X             Y             Z
Electronic contribution:    -13.47209     -11.54204     -52.06291
Nuclear contribution   :     13.08235      11.34227      51.34275
                        -----------------------------------------
Total Dipole Moment    :     -0.38974      -0.19976      -0.72016
                        -----------------------------------------
Magnitude (a.u.)       :      0.84287
Magnitude (Debye)      :      2.14241

Rotational constants in cm-1:     0.029881     0.022964     0.022877
Rotational constants in MHz :   895.812205   688.437631   685.832232

                             ****ORCA TERMINATED NORMALLY****
TOTAL RUN TIME: 0 days 0 hours 2 minutes 27 seconds 77 msec
