                         Program Version 4.2.0 -  RELEASE  -
|  1> !uhf def2-svp tightscf
|  2> !normalprint autoaux rijcosx uno
|  3> !moread noiter
|  4>
|  5> %moinp "Mo-TAEA-NH3_0_2_UHF_def2-tzvpp_def2-svp.sp.uno"
|  6>
|  7> %scf
|  8>   rotate {54,57,98} end
|  9> end
| 10>
| 11> %basis
| 12>   newgto Mo "def2-tzvpp" end
| 13> end
| 14>
| 15> *xyzfile 0 2 Mo-TAEA-NH3_0_2_bp86_lanl2dz_6-31gpol.opt.xyz
| 16>
| 17>                          ****END OF INPUT****

CARTESIAN COORDINATES (ANGSTROEM)
---------------------------------
  Mo     7.161049   15.739738   13.552686
  N      5.471131   15.197321   14.433170
  N      8.746513   14.519192   13.704041
  N      7.513929   17.690751   13.295368
  N      7.695166   16.198866   15.587176
  N      6.603922   15.231830   11.462641
  H      7.300179   14.609821   11.024603
  H      6.582185   16.069042   10.861573
  H      5.689405   14.766295   11.323835
  C      5.318330   15.472719   15.889445
  H      4.718837   14.691744   16.407905
  H      4.803931   16.445807   16.083145
  C      6.730529   15.489986   16.521529
  H      6.730688   15.959049   17.529273
  H      7.091922   14.450770   16.617908
  C      9.341792   14.392155   15.055764
  H      8.898896   13.552112   15.643655
  H     10.439166   14.205749   15.018849
  C      9.115827   15.727841   15.802263
  H      9.351319   15.638174   16.885554
  H      9.771732   16.497146   15.359352
  C      8.072414   18.413421   14.460314
  H      7.732135   19.471513   14.510628
  H      9.187754   18.441834   14.435862
  C      7.596196   17.702186   15.754170
  H      8.166575   18.034873   16.649563
  H      6.527762   17.934893   15.909817
  H      7.282313   18.335594   12.527952
  H      4.557056   14.915977   14.040522
  H      8.871089   13.632708   13.191849

 Total Charge           Charge          ....    0
 Multiplicity           Mult            ....    2
 Number of Electrons    NEL             ....  103
 Basis Dimension        Dim             ....  300

ORBITAL ENERGIES
----------------
                 SPIN UP ORBITALS
  NO   OCC          E(Eh)            E(eV)
   0   1.0000     -15.602722      -424.5717
   1   1.0000     -15.573942      -423.7885
   2   1.0000     -15.477901      -421.1751
   3   1.0000     -15.474976      -421.0955
   4   1.0000     -15.474831      -421.0916
   5   1.0000     -11.253138      -306.2134
   6   1.0000     -11.251689      -306.1740
   7   1.0000     -11.250818      -306.1503
   8   1.0000     -11.235632      -305.7371
   9   1.0000     -11.235343      -305.7292
  10   1.0000     -11.231997      -305.6382
  11   1.0000      -2.988264       -81.3148
  12   1.0000      -1.860603       -50.6296
  13   1.0000      -1.852929       -50.4208
  14   1.0000      -1.812602       -49.3234
  15   1.0000      -1.209340       -32.9078
  16   1.0000      -1.172411       -31.9029
  17   1.0000      -1.084522       -29.5113
  18   1.0000      -1.081188       -29.4206
  19   1.0000      -1.065391       -28.9908
  20   1.0000      -0.944505       -25.7013
  21   1.0000      -0.942753       -25.6536
  22   1.0000      -0.873623       -23.7725
  23   1.0000      -0.784646       -21.3513
  24   1.0000      -0.782810       -21.3013
  25   1.0000      -0.745568       -20.2879
  26   1.0000      -0.671844       -18.2818
  27   1.0000      -0.669382       -18.2148
  28   1.0000      -0.640309       -17.4237
  29   1.0000      -0.637547       -17.3485
  30   1.0000      -0.636102       -17.3092
  31   1.0000      -0.611929       -16.6514
  32   1.0000      -0.605529       -16.4773
  33   1.0000      -0.571273       -15.5451
  34   1.0000      -0.541752       -14.7418
  35   1.0000      -0.536180       -14.5902
  36   1.0000      -0.530517       -14.4361
  37   1.0000      -0.511887       -13.9292
  38   1.0000      -0.499780       -13.5997
  39   1.0000      -0.493544       -13.4300
  40   1.0000      -0.488207       -13.2848
  41   1.0000      -0.475666       -12.9435
  42   1.0000      -0.474087       -12.9006
  43   1.0000      -0.452980       -12.3262
  44   1.0000      -0.426805       -11.6140
  45   1.0000      -0.425923       -11.5899
  46   1.0000      -0.405622       -11.0375
  47   1.0000      -0.335608        -9.1323
  48   1.0000      -0.333411        -9.0726
  49   1.0000      -0.297018        -8.0823
  50   1.0000      -0.275923        -7.5082
  51   1.0000      -0.245169        -6.6714
  52   0.0000       0.078716         2.1420
  53   0.0000       0.119478         3.2512
  54   0.0000       0.128036         3.4840
  55   0.0000       0.155910         4.2425
  56   0.0000       0.208899         5.6844

                 SPIN DOWN ORBITALS
  NO   OCC          E(Eh)            E(eV)
   0   1.0000     -15.602722      -424.5717
   1   1.0000     -15.573942      -423.7885
   2   1.0000     -15.477901      -421.1751
   3   1.0000     -15.474976      -421.0955
   4   1.0000     -15.474831      -421.0916
   5   1.0000     -11.253138      -306.2134
   6   1.0000     -11.251689      -306.1740
   7   1.0000     -11.250818      -306.1503
   8   1.0000     -11.235632      -305.7371
   9   1.0000     -11.235343      -305.7292
  10   1.0000     -11.231997      -305.6382
  11   1.0000      -2.988264       -81.3148
  12   1.0000      -1.860603       -50.6296
  13   1.0000      -1.852929       -50.4208
  14   1.0000      -1.812602       -49.3234
  15   1.0000      -1.209340       -32.9078
  16   1.0000      -1.172411       -31.9029
  17   1.0000      -1.084522       -29.5113
  18   1.0000      -1.081188       -29.4206
  19   1.0000      -1.065391       -28.9908
  20   1.0000      -0.944505       -25.7013
  21   1.0000      -0.942753       -25.6536
  22   1.0000      -0.873623       -23.7725
  23   1.0000      -0.784646       -21.3513
  24   1.0000      -0.782810       -21.3013
  25   1.0000      -0.745568       -20.2879
  26   1.0000      -0.671844       -18.2818
  27   1.0000      -0.669382       -18.2148
  28   1.0000      -0.640309       -17.4237
  29   1.0000      -0.637547       -17.3485
  30   1.0000      -0.636102       -17.3092
  31   1.0000      -0.611929       -16.6514
  32   1.0000      -0.605529       -16.4773
  33   1.0000      -0.571273       -15.5451
  34   1.0000      -0.541752       -14.7418
  35   1.0000      -0.536180       -14.5902
  36   1.0000      -0.530517       -14.4361
  37   1.0000      -0.511887       -13.9292
  38   1.0000      -0.499780       -13.5997
  39   1.0000      -0.493544       -13.4300
  40   1.0000      -0.488207       -13.2848
  41   1.0000      -0.475666       -12.9435
  42   1.0000      -0.474087       -12.9006
  43   1.0000      -0.452980       -12.3262
  44   1.0000      -0.426805       -11.6140
  45   1.0000      -0.425923       -11.5899
  46   1.0000      -0.405622       -11.0375
  47   1.0000      -0.335608        -9.1323
  48   1.0000      -0.333411        -9.0726
  49   1.0000      -0.297018        -8.0823
  50   1.0000      -0.275923        -7.5082
  51   0.0000      -0.245169        -6.6714
  52   0.0000       0.078716         2.1420
  53   0.0000       0.119478         3.2512
  54   0.0000       0.128036         3.4840
  55   0.0000       0.155910         4.2425

MULLIKEN ATOMIC CHARGES AND SPIN POPULATIONS
--------------------------------------------
   0 Mo:    0.867703    0.968894
   1 N :   -0.627156    0.001543
   2 N :   -0.648137    0.003284
   3 N :   -0.659261    0.003892
   4 N :   -0.790387    0.000684
   5 N :   -0.295822    0.000875
   6 H :    0.163086    0.001558
   7 H :    0.161157    0.001367
   8 H :    0.157981    0.000028
   9 C :    0.208955    0.000069
  10 H :    0.008174    0.000006
  11 H :    0.003945    0.000041
  12 C :    0.153889   -0.000069
  13 H :    0.025753    0.000027
  14 H :    0.042396    0.000048
  15 C :    0.210412    0.003335
  16 H :    0.007118    0.000448
  17 H :    0.012236    0.000265
  18 C :    0.144756    0.001296
  19 H :    0.028543    0.000215
  20 H :    0.051738    0.000045
  21 C :    0.214678    0.002085
  22 H :    0.010846    0.000372
  23 H :    0.014320    0.000074
  24 C :    0.139104    0.002656
  25 H :    0.026606    0.000383
  26 H :    0.044836    0.000049
  27 H :    0.108390    0.002932
  28 H :    0.103007    0.000084
  29 H :    0.111134    0.003515
Sum of atomic charges         :    0.0000000

LOEWDIN ATOMIC CHARGES AND SPIN POPULATIONS
-------------------------------------------
   0 Mo:   -0.890320    0.943605
   1 N :   -0.090643    0.001848
   2 N :   -0.125746    0.006857
   3 N :   -0.117172    0.006650
   4 N :    0.009264    0.002161
   5 N :    0.145445    0.003450
   6 H :    0.103438    0.003793
   7 H :    0.102227    0.003620
   8 H :    0.096585    0.000086
   9 C :    0.071676    0.000202
  10 H :    0.003460    0.000019
  11 H :   -0.004739    0.000014
  12 C :    0.093158    0.000280
  13 H :    0.008073    0.000052
  14 H :    0.024886    0.000056
  15 C :    0.076336    0.006219
  16 H :   -0.003128    0.000275
  17 H :    0.004212    0.000220
  18 C :    0.094960    0.002217
  19 H :    0.008405    0.000163
  20 H :    0.029536    0.000039
  21 C :    0.077709    0.004675
  22 H :    0.005485    0.000230
  23 H :   -0.000562    0.000075
  24 C :    0.093446    0.003512
  25 H :    0.007570    0.000363
  26 H :    0.025987    0.000113
  27 H :    0.050937    0.004063
  28 H :    0.046691    0.000221
  29 H :    0.052824    0.004923

  Mayer bond orders larger than 0.100000
B(  0-Mo,  1-N ) :   1.0046 B(  0-Mo,  2-N ) :   0.9550 B(  0-Mo,  3-N ) :   0.9506
B(  0-Mo,  4-N ) :   0.3298 B(  0-Mo,  5-N ) :   0.3530 B(  1-N ,  9-C ) :   0.9833
B(  1-N , 28-H ) :   0.9377 B(  2-N , 15-C ) :   0.9798 B(  2-N , 29-H ) :   0.9343
B(  3-N , 21-C ) :   0.9775 B(  3-N , 27-H ) :   0.9414 B(  4-N , 12-C ) :   0.8537
B(  4-N , 18-C ) :   0.8482 B(  4-N , 24-C ) :   0.8537 B(  5-N ,  6-H ) :   0.9615
B(  5-N ,  7-H ) :   0.9610 B(  5-N ,  8-H ) :   0.9609 B(  9-C , 10-H ) :   0.9701
B(  9-C , 11-H ) :   0.9595 B(  9-C , 12-C ) :   1.0438 B( 12-C , 13-H ) :   0.9739
B( 12-C , 14-H ) :   0.9731 B( 15-C , 16-H ) :   0.9589 B( 15-C , 17-H ) :   0.9675
B( 15-C , 18-C ) :   1.0515 B( 18-C , 19-H ) :   0.9747 B( 18-C , 20-H ) :   0.9733
B( 21-C , 22-H ) :   0.9728 B( 21-C , 23-H ) :   0.9626 B( 21-C , 24-C ) :   1.0439
B( 24-C , 25-H ) :   0.9723 B( 24-C , 26-H ) :   0.9739

FINAL SINGLE POINT ENERGY         0.000000000000

DIPOLE MOMENT
-------------
                                X             Y             Z
Electronic contribution:    -13.53589     -11.55412     -52.10785
Nuclear contribution   :     13.08235      11.34227      51.34275
                        -----------------------------------------
Total Dipole Moment    :     -0.45353      -0.21184      -0.76510
                        -----------------------------------------
Magnitude (a.u.)       :      0.91430
Magnitude (Debye)      :      2.32397

Rotational constants in cm-1:     0.029881     0.022964     0.022877
Rotational constants in MHz :   895.812205   688.437631   685.832232

                             ****ORCA TERMINATED NORMALLY****
TOTAL RUN TIME: 0 days 0 hours 0 minutes 35 seconds 683 msec
