                         Program Version 4.2.0 -  RELEASE  -
|  1> # input to generate an atomic fitting density for Mo
|  2> # this file is use internally by ORCA
|  3> #
|  4> # atomic ground state (S=5): 1s2 2s2 2p6 3s2 3p6 4s2 3d10 4p6 5s2 4d4
|  5> #
|  6> ! RHF AllowRHF def2-SVP def2/J  NoMulliken NoLoewdin NoMayer NoPrintMOs
|  7>
|  8> %output print[p_atomdensfit] 2 end
|  9>
| 10> %scf
| 11>   guess hcore
| 12>   maxiter 1000
| 13>   maxdisk 500000
| 14>   SCFMode Conventional
| 15>   lshift 0.600000
| 16>   hftyp rohf
| 17>   rohf_case sahf
| 18>   rohf_numop   2
| 19>   rohf_norb[1] 5
| 20>   rohf_nel[1]  4
| 21> end
| 22>
| 23> %basis
| 24>   NewECP 42
| 25>     N_core 28
| 26>     lmax f
| 27>     s 3
| 28>       1     110.2991760000      2.8063717000  0
| 29>       2      23.2014645000     44.5162012000  1
| 30>       3       5.3530131000     82.7785227000  2
| 31>     p 4
| 32>       1      63.2901397000      4.9420876000  0
| 33>       2      23.3315302000     25.8604976000  1
| 34>       3      24.6759423000    132.4708742000  2
| 35>       4       4.6493040000     57.3149794000  2
| 36>     d 5
| 37>       1     104.4839977000      3.0054591000  0
| 38>       2      66.2307245000     26.3637851000  1
| 39>       3      39.1283176000    183.3849199000  2
| 40>       4      13.1164437000     98.4453068000  2
| 41>       5       3.6280263000     22.4901377000  2
| 42>     f 5
| 43>       1     537.9667807000     -0.0469492000  0
| 44>       2     147.8982938000    -20.2080084000  1
| 45>       3      45.7358898000   -106.2116302000  2
| 46>       4      13.2911467000    -41.8107368000  2
| 47>       5       4.7059961000     -4.2054103000  2
| 48>   end
| 49>   NewGTO 42
| 50>     s 3
| 51>      1       2.3610000000     -0.9121759787
| 52>      2       1.3090000000      1.1477452732
| 53>      3       0.4500000000      0.6097108857
| 54>     s 4
| 55>      1       2.3610000000      0.8139258415
| 56>      2       1.3090000000     -1.1360083184
| 57>      3       0.4500000000     -1.1611591166
| 58>      4       0.1681000000      1.0064785277
| 59>     s 1
| 60>      1       0.0423000000      1.0000000000
| 61>     p 3
| 62>      1       4.8950000000     -0.0908257996
| 63>      2       1.0440000000      0.7042898967
| 64>      3       0.3877000000      0.3973178981
| 65>     p 2
| 66>      1       0.4995000000     -0.1081944993
| 67>      2       0.0780000000      1.0368092928
| 68>     p 1
| 69>      1       0.0247000000      1.0000000000
| 70>     d 3
| 71>      1       2.9930000000      0.0527063001
| 72>      2       1.0630000000      0.5003907009
| 73>      3       0.3721000000      0.5794024010
| 74>     d 1
| 75>      1       0.1178000000      1.0000000000
| 76>   end
| 77>   NewAuxGTO 42
| 78>     S 1
| 79>      1 1310.72 1.0
| 80>     S 1
| 81>      1  655.36 1.0
| 82>     S 1
| 83>      1  327.68 1.0
| 84>     S 1
| 85>      1  163.84 1.0
| 86>     S 1
| 87>      1   81.82 1.0
| 88>     S 1
| 89>      1   40.96 1.0
| 90>     S 1
| 91>      1   20.48 1.0
| 92>     S 1
| 93>      1   10.24 1.0
| 94>     S 1
| 95>      1    5.12 1.0
| 96>     S 1
| 97>      1    2.56 1.0
| 98>     S 1
| 99>      1    1.28 1.0
|100>     S 1
|101>      1    0.64 1.0
|102>     S 1
|103>      1    0.32 1.0
|104>     S 1
|105>      1    0.16 1.0
|106>     S 1
|107>      1    0.08 1.0
|108>     S 1
|109>      1    0.04 1.0
|110>     S 1
|111>      1    0.02 1.0
|112>     S 1
|113>      1    0.01 1.0
|114>   end
|115> end
|116>
|117> * xyz 0 5
|118> 42  0.0 0.0 0.0
|119> *
|120>
|121>
|122>                          ****END OF INPUT****

CARTESIAN COORDINATES (ANGSTROEM)
---------------------------------
  Mo     0.000000    0.000000    0.000000

 Total Charge           Charge          ....    0
 Multiplicity           Mult            ....    5
 Number of Electrons    NEL             ....   14
 Basis Dimension        Dim             ....   22

ORBITAL ENERGIES
----------------

  NO   OCC          E(Eh)            E(eV)
   0   2.0000      -2.831637       -77.0528
   1   2.0000      -1.711559       -46.5739
   2   2.0000      -1.709425       -46.5158
   3   2.0000      -1.699957       -46.2582
   4   2.0000      -0.241935        -6.5834
   5   0.8000      -0.327588        -8.9141
   6   0.8000      -0.327331        -8.9071
   7   0.8000      -0.304765        -8.2931
   8   0.8000      -0.300029        -8.1642
   9   0.8000      -0.232409        -6.3242
  10   0.0000      -0.008315        -0.2263
  11   0.0000      -0.007078        -0.1926
  12   0.0000      -0.001836        -0.0500
  13   0.0000       0.112550         3.0627
  14   0.0000       0.115065         3.1311

CleanUpVectors: The p-vectors have cracked symmetry
CleanUpVectors: The p-vectors have cracked symmetry
CleanUpVectors: The p-vectors have cracked symmetry
CleanUpVectors: The d-vectors have cracked symmetry at i=4
CleanUpVectors: The d-vectors have cracked symmetry at i=6
CleanUpVectors: The d-vectors have cracked symmetry at i=7
CleanUpVectors: The d-vectors have cracked symmetry at i=8
CleanUpVectors: The d-vectors have cracked symmetry at i=9
CleanUpVectors: The p-vectors have cracked symmetry
CleanUpVectors: The p-vectors have cracked symmetry
CleanUpVectors: The p-vectors have cracked symmetry
CleanUpVectors: The p-vectors have cracked symmetry
CleanUpVectors: The p-vectors have cracked symmetry
CleanUpVectors: The p-vectors have cracked symmetry
CleanUpVectors: The d-vectors have cracked symmetry at i=16
CleanUpVectors: The d-vectors have cracked symmetry at i=17
--------------------------
ATOM BASIS FOR ELEMENT Mo
--------------------------
 NewGTO Mo
 S 8
    1          2.361000000000         0.912505724663
    2          1.309000000000        -1.148160176003
    3          0.450000000000        -0.609931292407
    4          2.361000000000        -0.002170820302
    5          1.309000000000         0.003029845958
    6          0.450000000000         0.003096925611
    7          0.168100000000        -0.002684377262
    8          0.042300000000        -0.004729896277
 P 18
    1          4.895000000000        -0.021732957779
    2          1.044000000000         0.168523730667
    3          0.387700000000         0.095070928551
    4          4.895000000000        -0.087837120722
    5          1.044000000000         0.681114803857
    6          0.387700000000         0.384243907944
    7          4.895000000000         0.001722813736
    8          1.044000000000        -0.013359203149
    9          0.387700000000        -0.007536456991
   10          0.499500000000        -0.000432734581
   11          0.078000000000         0.004146821121
   12          0.499500000000        -0.001748963947
   13          0.078000000000         0.016760020936
   14          0.499500000000         0.000034303710
   15          0.078000000000        -0.000328726557
   16          0.024700000000        -0.000768556795
   17          0.024700000000        -0.003106241529
   18          0.024700000000         0.000060924989
 P 18
    1          4.895000000000        -0.087744483436
    2          1.044000000000         0.680396467160
    3          0.387700000000         0.383838665688
    4          4.895000000000         0.021721871621
    5          1.044000000000        -0.168437765344
    6          0.387700000000        -0.095022432099
    7          4.895000000000         0.000603376910
    8          1.044000000000        -0.004678761583
    9          0.387700000000        -0.002639475203
   10          0.499500000000        -0.002340610826
   11          0.078000000000         0.022429671298
   12          0.499500000000         0.000579437543
   13          0.078000000000        -0.005552650393
   14          0.499500000000         0.000016095263
   15          0.078000000000        -0.000154238138
   16          0.024700000000        -0.004821506973
   17          0.024700000000         0.001193603876
   18          0.024700000000         0.000033155201
 D 18
    1          2.993000000000         0.000206566350
    2          1.063000000000         0.001961129514
    3          0.372100000000         0.002270791897
    4          2.993000000000         0.000664098309
    5          1.063000000000         0.006304912650
    6          0.372100000000         0.007300458464
    7          2.993000000000         0.010778595497
    8          1.063000000000         0.102331390086
    9          0.372100000000         0.118489518304
   10          2.993000000000         0.001591118108
   11          1.063000000000         0.015105987397
   12          0.372100000000         0.017491223062
   13          2.993000000000         0.043587141749
   14          1.063000000000         0.413813915384
   15          0.372100000000         0.479155139592
   16          0.117800000000         0.001267025790
   17          0.117800000000         0.004073411202
   18          0.117800000000         0.066113180914
 P 18
    1          4.895000000000        -0.008703564564
    2          1.044000000000         0.067489993094
    3          0.387700000000         0.038073785134
    4          4.895000000000         0.002154639297
    5          1.044000000000        -0.016707705240
    6          0.387700000000        -0.009425479990
    7          4.895000000000         0.000059850257
    8          1.044000000000        -0.000464096453
    9          0.387700000000        -0.000261815238
   10          0.499500000000        -0.004534566030
   11          0.078000000000         0.043453966972
   12          0.499500000000         0.001122569275
   13          0.078000000000        -0.010757388442
   14          0.499500000000         0.000031182045
   15          0.078000000000        -0.000298812180
   16          0.024700000000        -1.002838666490
   17          0.024700000000         0.248260995078
   18          0.024700000000         0.006896042607
 P 18
    1          4.895000000000        -0.021818707784
    2          1.044000000000         0.169188661362
    3          0.387700000000         0.095446042361
    4          4.895000000000         0.005401401329
    5          1.044000000000        -0.041884050575
    6          0.387700000000        -0.023628456146
    7          4.895000000000         0.000150036834
    8          1.044000000000        -0.001163429629
    9          0.387700000000        -0.000656336853
   10          0.499500000000         0.148276704520
   11          0.078000000000        -1.420910177014
   12          0.499500000000        -0.036707122931
   13          0.078000000000         0.351758050671
   14          0.499500000000        -0.001019628088
   15          0.078000000000         0.009770920735
   16          0.024700000000         0.891610068479
   17          0.024700000000        -0.220725436921
   18          0.024700000000        -0.006131176655
 D 18
    1          2.361000000000        -0.000394356823
    2          1.309000000000         0.000894978457
    3          0.450000000000         0.001382987168
    4          2.361000000000        -0.000579106298
    5          1.309000000000         0.001457844837
    6          0.450000000000         0.004334596348
    7          0.168100000000        -0.010057875114
    8          0.042300000000        -0.094327177966
    9          2.993000000000         0.035410913983
   10          1.063000000000         0.336189260746
   11          0.372100000000         0.389273550680
   12          2.993000000000        -0.014481265437
   13          1.063000000000        -0.137484333905
   14          0.372100000000        -0.159193112544
   15          2.993000000000        -0.000504739471
   16          1.063000000000        -0.004791968650
   17          0.372100000000        -0.005548620581
   18          2.993000000000         0.006427118923
 end
  // -----------------------------------------------
  // The basis set
  // -----------------------------------------------
  BAS[ATNO] = new BFNGauss[NSH];
  // Basis function   1 L = s
  InitBFNGauss(BAS[ATNO][  0]);
  BAS[ATNO][  0].l  = 0;
  BAS[ATNO][  0].ng = 8;
  BAS[ATNO][  0].a[  0] =         2.361000000000;     BAS[ATNO][  0].d[  0] =        -0.912505724663;
  BAS[ATNO][  0].a[  1] =         1.309000000000;     BAS[ATNO][  0].d[  1] =         1.148160176003;
  BAS[ATNO][  0].a[  2] =         0.450000000000;     BAS[ATNO][  0].d[  2] =         0.609931292407;
  BAS[ATNO][  0].a[  3] =         2.361000000000;     BAS[ATNO][  0].d[  3] =         0.002170820302;
  BAS[ATNO][  0].a[  4] =         1.309000000000;     BAS[ATNO][  0].d[  4] =        -0.003029845958;
  BAS[ATNO][  0].a[  5] =         0.450000000000;     BAS[ATNO][  0].d[  5] =        -0.003096925611;
  BAS[ATNO][  0].a[  6] =         0.168100000000;     BAS[ATNO][  0].d[  6] =         0.002684377262;
  BAS[ATNO][  0].a[  7] =         0.042300000000;     BAS[ATNO][  0].d[  7] =         0.004729896277;

FINAL SINGLE POINT ENERGY       -66.758043649415

DIPOLE MOMENT
-------------
                                X             Y             Z
Electronic contribution:     -0.00000      -0.00000       0.00000
Nuclear contribution   :      0.00000       0.00000       0.00000
                        -----------------------------------------
Total Dipole Moment    :     -0.00000      -0.00000       0.00000
                        -----------------------------------------
Magnitude (a.u.)       :      0.00000
Magnitude (Debye)      :      0.00000

Rotational constants in cm-1:     0.000000     0.000000     0.000000
Rotational constants in MHz :     0.000000     0.000000     0.000000

                             ****ORCA TERMINATED NORMALLY****
TOTAL RUN TIME: 0 days 0 hours 0 minutes 1 seconds 525 msec
