                         Program Version 4.2.0 -  RELEASE  -
|  1> !rhf def2-svp tightscf kdiis
|  2> !normalprint
|  3>
|  4> %paras
|  5>   rNN [0.501187233627272 0.6084298690766428 0.7386199822079362 0.8966678097917788 1.088534267260644 1.32145576997553 1.6042171611153242 1.9474830399087562 2.3641999865500756 2.870084854071569 3.4842175435383975 4.229760619613384 5.134832907437553 6.233570019315557 7.567411809920191 9.1866653175426 11.152402139117903 13.538761800225439 16.43574799372698 19.952623149688797]
|  6> end
|  7>
|  8> %scf
|  9>   maxiter 500
| 10> end
| 11>
| 12> *int 0 1
| 13> N 0 0 0 0 0 0
| 14> N 1 0 0 {rNN} 0 0
| 15> *
| 16>
| 17>                          ****END OF INPUT****
 Total Charge           Charge          ....    0
 Multiplicity           Mult            ....    1
 Number of Electrons    NEL             ....   14
 Basis Dimension        Dim             ....   28

ORBITAL ENERGIES
----------------

  NO   OCC          E(Eh)            E(eV)
   0   2.0000     -17.056877      -464.1412
   1   2.0000     -16.368653      -445.4137
   2   2.0000      -1.675371       -45.5891
   3   2.0000      -1.504874       -40.9497
   4   2.0000      -1.497739       -40.7556
   5   2.0000      -0.682235       -18.5646
   6   2.0000       0.088858         2.4180
   7   0.0000      -0.215454        -5.8628
   8   0.0000       0.426964        11.6183
   9   0.0000       0.435818        11.8592
  10   0.0000       0.506889        13.7931
  11   0.0000       0.529201        14.4003

MULLIKEN ATOMIC CHARGES
-----------------------
   0 N :   -0.000001
   1 N :    0.000001
Sum of atomic charges:   -0.0000000

LOEWDIN ATOMIC CHARGES
----------------------
   0 N :   -0.000000
   1 N :    0.000000

  Mayer bond orders larger than 0.100000
B(  0-N ,  1-N ) :   3.6745

FINAL SINGLE POINT ENERGY      -101.590955243621
FINAL SINGLE POINT ENERGY      -104.682172708578
FINAL SINGLE POINT ENERGY      -106.627396090687
FINAL SINGLE POINT ENERGY      -107.657995037516
FINAL SINGLE POINT ENERGY      -108.100570439166
FINAL SINGLE POINT ENERGY      -108.231284981775
FINAL SINGLE POINT ENERGY      -108.241304300915
FINAL SINGLE POINT ENERGY      -108.215293876017
FINAL SINGLE POINT ENERGY      -108.179343087727
FINAL SINGLE POINT ENERGY      -108.146980287999
FINAL SINGLE POINT ENERGY      -108.124044010129
FINAL SINGLE POINT ENERGY      -108.108964119052
FINAL SINGLE POINT ENERGY      -108.098143431161
FINAL SINGLE POINT ENERGY      -108.089411754661
FINAL SINGLE POINT ENERGY      -108.082126668415
FINAL SINGLE POINT ENERGY      -108.076066895541
FINAL SINGLE POINT ENERGY      -108.071045288602
FINAL SINGLE POINT ENERGY      -108.066893216792
FINAL SINGLE POINT ENERGY      -108.063464793335

CARTESIAN COORDINATES (ANGSTROEM)
---------------------------------
  N      0.000000    0.000000    0.000000
  N     19.952623    0.000000    0.000000

FINAL SINGLE POINT ENERGY      -108.060636201487

DIPOLE MOMENT
-------------
                                X             Y             Z
Electronic contribution:      0.00000      -0.00000       0.00000
Nuclear contribution   :      0.00000       0.00000       0.00000
                        -----------------------------------------
Total Dipole Moment    :      0.00000      -0.00000       0.00000
                        -----------------------------------------
Magnitude (a.u.)       :      0.00000
Magnitude (Debye)      :      0.00000

Rotational constants in cm-1:     0.000000     0.006046     0.006046
Rotational constants in MHz :     0.000000   181.260207   181.260207

                             ****ORCA TERMINATED NORMALLY****
TOTAL RUN TIME: 0 days 0 hours 0 minutes 21 seconds 795 msec
