                         Program Version 4.2.0 -  RELEASE  -
|  1> !rhf def2-svp tightscf
|  2> !normalprint
|  3>
|  4> %paras
|  5>   rNN [0.501187233627272 0.6084298690766428 0.7386199822079362 0.8966678097917788 1.088534267260644 1.32145576997553 1.6042171611153242 1.9474830399087562 2.3641999865500756 2.870084854071569 3.4842175435383975 4.229760619613384 5.134832907437553 6.233570019315557 7.567411809920191 9.1866653175426 11.152402139117903 13.538761800225439 16.43574799372698 19.952623149688797]
|  6> end
|  7>
|  8> %scf
|  9>   maxiter 500
| 10> end
| 11>
| 12> %casscf
| 13>   nel 10
| 14>   norb 8
| 15> end
| 16>
| 17> *int 0 1
| 18> N 0 0 0 0 0 0
| 19> N 1 0 0 {rNN} 0 0
| 20> *
| 21>
| 22>                          ****END OF INPUT****
 Total Charge           Charge          ....    0
 Multiplicity           Mult            ....    1
 Number of Electrons    NEL             ....   14
 Basis Dimension        Dim             ....   28

ORBITAL ENERGIES
----------------

  NO   OCC          E(Eh)            E(eV)
   0   2.0000     -16.387130      -445.9165
   1   2.0000     -15.727674      -427.9718
   2   1.9993      -1.457036       -39.6480
   3   1.9966      -0.577694       -15.7199
   4   1.9960      -0.570055       -15.5120
   5   1.9926      -1.184481       -32.2314
   6   1.9926      -1.184481       -32.2314
   7   0.0094       1.264490        34.4085
   8   0.0094       1.264490        34.4085
   9   0.0039       2.472018        67.2670
  10   0.0000       0.596763        16.2387
  11   0.0000       0.596763        16.2387
  12   0.0000       0.686612        18.6837
  13   0.0000       0.803793        21.8723
  14   0.0000       0.887325        24.1453

MULLIKEN ATOMIC CHARGES
-----------------------
   0 N :    0.000000
   1 N :   -0.000000
Sum of atomic charges:   -0.0000000

LOEWDIN ATOMIC CHARGES
----------------------
   0 N :    0.000000
   1 N :   -0.000000

  Mayer bond orders larger than 0.100000
B(  0-N ,  1-N ) :   0.6182

FINAL SINGLE POINT ENERGY      -103.072843668509
FINAL SINGLE POINT ENERGY      -106.208209371566
FINAL SINGLE POINT ENERGY      -107.980538513199
FINAL SINGLE POINT ENERGY      -108.784427442271
FINAL SINGLE POINT ENERGY      -109.000200764583
FINAL SINGLE POINT ENERGY      -108.928782783799
FINAL SINGLE POINT ENERGY      -108.782829031108
FINAL SINGLE POINT ENERGY      -108.687660657875
FINAL SINGLE POINT ENERGY      -108.667848117558
FINAL SINGLE POINT ENERGY      -108.666408559292
FINAL SINGLE POINT ENERGY      -108.666123405359
FINAL SINGLE POINT ENERGY      -108.665897601072
FINAL SINGLE POINT ENERGY      -108.665853887668
FINAL SINGLE POINT ENERGY      -108.665851091420
FINAL SINGLE POINT ENERGY      -108.665850373389
FINAL SINGLE POINT ENERGY      -108.665850150012
FINAL SINGLE POINT ENERGY      -108.665850079600
FINAL SINGLE POINT ENERGY      -108.665850058223
FINAL SINGLE POINT ENERGY      -108.665850048517

CARTESIAN COORDINATES (ANGSTROEM)
---------------------------------
  N      0.000000    0.000000    0.000000
  N     19.952623    0.000000    0.000000

FINAL SINGLE POINT ENERGY      -108.665850048512

DIPOLE MOMENT
-------------
                                X             Y             Z
Electronic contribution:     -0.00000      -0.00000      -0.00000
Nuclear contribution   :      0.00000       0.00000       0.00000
                        -----------------------------------------
Total Dipole Moment    :     -0.00000      -0.00000      -0.00000
                        -----------------------------------------
Magnitude (a.u.)       :      0.00000
Magnitude (Debye)      :      0.00000

Rotational constants in cm-1:     0.000000     0.006046     0.006046
Rotational constants in MHz :     0.000000   181.260207   181.260207

                             ****ORCA TERMINATED NORMALLY****
TOTAL RUN TIME: 0 days 0 hours 1 minutes 47 seconds 907 msec
