                         Program Version 4.2.0 -  RELEASE  -
|  1> !uhf def2-svp tightscf
|  2> !normalprint
|  3>
|  4> %scf
|  5>   maxiter 500
|  6> end
|  7>
|  8> %casscf
|  9>   nel 5
| 10>   norb 4
| 11> end
| 12>
| 13> *xyz 0 4
| 14> N 0 0 0
| 15> *
| 16>
| 17>                          ****END OF INPUT****

CARTESIAN COORDINATES (ANGSTROEM)
---------------------------------
  N      0.000000    0.000000    0.000000

 Total Charge           Charge          ....    0
 Multiplicity           Mult            ....    4
 Number of Electrons    NEL             ....    7
 Basis Dimension        Dim             ....   14

ORBITAL ENERGIES
----------------

  NO   OCC          E(Eh)            E(eV)
   0   2.0000     -15.623279      -425.1310
   1   2.0000      -0.925854       -25.1938
   2   1.0000      -0.178819        -4.8659
   3   1.0000      -0.178819        -4.8659
   4   1.0000      -0.178819        -4.8659
   5   0.0000       0.748812        20.3762
   6   0.0000       0.961691        26.1689
   7   0.0000       0.961691        26.1689
   8   0.0000       0.961691        26.1689
   9   0.0000       2.456478        66.8442

MULLIKEN ATOMIC CHARGES AND SPIN DENSITIES
------------------------------------------
   0 N :    0.000000    3.000000
Sum of atomic charges       :    0.0000000

LOEWDIN ATOMIC CHARGES AND SPIN DENSITIES
-----------------------------------------
   0 N :    0.000000    3.000000

FINAL SINGLE POINT ENERGY       -54.332925024884

DIPOLE MOMENT
-------------
                                X             Y             Z
Electronic contribution:      0.00000      -0.00000      -0.00000
Nuclear contribution   :      0.00000       0.00000       0.00000
                        -----------------------------------------
Total Dipole Moment    :      0.00000      -0.00000      -0.00000
                        -----------------------------------------
Magnitude (a.u.)       :      0.00000
Magnitude (Debye)      :      0.00000

Rotational constants in cm-1:     0.000000     0.000000     0.000000
Rotational constants in MHz :     0.000000     0.000000     0.000000

                             ****ORCA TERMINATED NORMALLY****
TOTAL RUN TIME: 0 days 0 hours 0 minutes 4 seconds 619 msec
