                         Program Version 5.0.2 -  RELEASE  -
|  1> # input to generate an atomic fitting density for Mo
|  2> # this file is use internally by ORCA
|  3> #
|  4> # atomic ground state (S=5): 1s2 2s2 2p6 3s2 3p6 4s2 3d10 4p6 5s2 4d4
|  5> #
|  6> ! RHF AllowRHF def2-SVP def2/J  NoMulliken NoLoewdin NoMayer NoPrintMOs
|  7>
|  8> %output print[p_atomdensfit] 2 end
|  9>
| 10> %scf
| 11>   guess hcore
| 12>   maxiter 1000
| 13>   maxdisk 500000
| 14>   SCFMode Conventional
| 15>   lshift 0.600000
| 16>   hftyp rohf
| 17>   rohf_case sahf
| 18>   rohf_numop   2
| 19>   rohf_norb[1] 5
| 20>   rohf_nel[1]  4
| 21> end
| 22>
| 23> %basis
| 24>   NewECP 42
| 25>     N_core 28
| 26>     lmax f
| 27>     s 3
| 28>       1     110.2991760000      2.8063717000  0
| 29>       2      23.2014645000     44.5162012000  1
| 30>       3       5.3530131000     82.7785227000  2
| 31>     p 4
| 32>       1      63.2901397000      4.9420876000  0
| 33>       2      23.3315302000     25.8604976000  1
| 34>       3      24.6759423000    132.4708742000  2
| 35>       4       4.6493040000     57.3149794000  2
| 36>     d 5
| 37>       1     104.4839977000      3.0054591000  0
| 38>       2      66.2307245000     26.3637851000  1
| 39>       3      39.1283176000    183.3849199000  2
| 40>       4      13.1164437000     98.4453068000  2
| 41>       5       3.6280263000     22.4901377000  2
| 42>     f 5
| 43>       1     537.9667807000     -0.0469492000  0
| 44>       2     147.8982938000    -20.2080084000  1
| 45>       3      45.7358898000   -106.2116302000  2
| 46>       4      13.2911467000    -41.8107368000  2
| 47>       5       4.7059961000     -4.2054103000  2
| 48>   end
| 49>   NewGTO 42
| 50>     s 3
| 51>      1       2.3610000000     -0.9121759787
| 52>      2       1.3090000000      1.1477452732
| 53>      3       0.4500000000      0.6097108857
| 54>     s 4
| 55>      1       2.3610000000      0.8139258415
| 56>      2       1.3090000000     -1.1360083184
| 57>      3       0.4500000000     -1.1611591166
| 58>      4       0.1681000000      1.0064785277
| 59>     s 1
| 60>      1       0.0423000000      1.0000000000
| 61>     p 3
| 62>      1       4.8950000000     -0.0908257996
| 63>      2       1.0440000000      0.7042898967
| 64>      3       0.3877000000      0.3973178981
| 65>     p 2
| 66>      1       0.4995000000     -0.1081944993
| 67>      2       0.0780000000      1.0368092928
| 68>     p 1
| 69>      1       0.0247000000      1.0000000000
| 70>     d 3
| 71>      1       2.9930000000      0.0527063001
| 72>      2       1.0630000000      0.5003907009
| 73>      3       0.3721000000      0.5794024010
| 74>     d 1
| 75>      1       0.1178000000      1.0000000000
| 76>   end
| 77>   NewAuxGTO 42
| 78>     S 1
| 79>      1 1310.72 1.0
| 80>     S 1
| 81>      1  655.36 1.0
| 82>     S 1
| 83>      1  327.68 1.0
| 84>     S 1
| 85>      1  163.84 1.0
| 86>     S 1
| 87>      1   81.82 1.0
| 88>     S 1
| 89>      1   40.96 1.0
| 90>     S 1
| 91>      1   20.48 1.0
| 92>     S 1
| 93>      1   10.24 1.0
| 94>     S 1
| 95>      1    5.12 1.0
| 96>     S 1
| 97>      1    2.56 1.0
| 98>     S 1
| 99>      1    1.28 1.0
|100>     S 1
|101>      1    0.64 1.0
|102>     S 1
|103>      1    0.32 1.0
|104>     S 1
|105>      1    0.16 1.0
|106>     S 1
|107>      1    0.08 1.0
|108>     S 1
|109>      1    0.04 1.0
|110>     S 1
|111>      1    0.02 1.0
|112>     S 1
|113>      1    0.01 1.0
|114>   end
|115> end
|116>
|117> * xyz 0 5
|118> 42  0.0 0.0 0.0
|119> *
|120>
|121>
|122>                          ****END OF INPUT****

CARTESIAN COORDINATES (ANGSTROEM)
---------------------------------
  Mo     0.000000    0.000000    0.000000

 Total Charge           Charge          ....    0
 Multiplicity           Mult            ....    5
 Number of Electrons    NEL             ....   14
 Basis Dimension        Dim             ....   22

ORBITAL ENERGIES
----------------

  NO   OCC          E(Eh)            E(eV)
   0   2.0000      -2.988101       -81.3104
   1   2.0000      -1.847415       -50.2707
   2   2.0000      -1.847384       -50.2699
   3   2.0000      -1.847301       -50.2676
   4   2.0000      -0.234186        -6.3725
   5   0.8000      -0.462267       -12.5789
   6   0.8000      -0.462248       -12.5784
   7   0.8000      -0.462170       -12.5763
   8   0.8000      -0.462137       -12.5754
   9   0.8000      -0.462103       -12.5745
  10   0.0000      -0.023554        -0.6409
  11   0.0000      -0.023533        -0.6404
  12   0.0000      -0.023479        -0.6389
  13   0.0000       0.095021         2.5857
  14   0.0000       0.095056         2.5866

FINAL SINGLE POINT ENERGY       -66.803588574180

DIPOLE MOMENT
-------------
                                X             Y             Z
Electronic contribution:      0.00000       0.00000      -0.00000
Nuclear contribution   :      0.00000       0.00000       0.00000
                        -----------------------------------------
Total Dipole Moment    :      0.00000       0.00000      -0.00000
                        -----------------------------------------
Magnitude (a.u.)       :      0.00000
Magnitude (Debye)      :      0.00000

Rotational constants in cm-1:     0.000000     0.000000     0.000000
Rotational constants in MHz :     0.000000     0.000000     0.000000

                             ****ORCA TERMINATED NORMALLY****
TOTAL RUN TIME: 0 days 0 hours 0 minutes 3 seconds 550 msec
